<?xml version="1.0" encoding="UTF-8"?>

<!-- generated on Tue Feb  4 23:27:58 2020 by Eclipse SUMO GUI Version 1.2.0
<configuration xmlns:xsi="http://www.w3.org/2001/XMLSchema-instance" xsi:noNamespaceSchemaLocation="http://sumo.dlr.de/xsd/sumoConfiguration.xsd">

    <input>
        <net-file value="singleRoad.net.xml"/>
        <route-files value="singleRoad.rou.xml"/>
    </input>

    <output>
        <write-license value="true"/>
        <human-readable-time value="true"/>
        <summary-output value="results/summaryOutput25car.txt"/>
        <tripinfo-output value="results/tripInfo25car.txt"/>
    </output>

    <time>
        <begin value="0"/>
        <step-length value="1"/>
    </time>

    <processing>
        <route-steps value="20"/>
    </processing>

    <report>
        <verbose value="true"/>
        <duration-log.statistics value="true"/>
        <no-step-log value="true"/>
    </report>

    <traci_server>
        <remote-port value="56862"/>
    </traci_server>

    <gui_only>
        <gui-settings-file value="settings.settings.xml"/>
        <quit-on-end value="true"/>
        <start value="false"/>
        <tracker-interval value="1"/>
    </gui_only>

</configuration>
-->

<summary xmlns:xsi="http://www.w3.org/2001/XMLSchema-instance" xsi:noNamespaceSchemaLocation="http://sumo.dlr.de/xsd/summary_file.xsd">
    <step time="00:00:00" loaded="3" inserted="2" running="2" waiting="0" ended="0" arrived="0" collisions="0" teleports="0" halting="2" meanWaitingTime="0.00" meanTravelTime="-1.00" meanSpeed="0.00" meanSpeedRelative="0.00" duration="1580858888588"/>
    <step time="00:00:01" loaded="3" inserted="2" running="2" waiting="1" ended="0" arrived="0" collisions="0" teleports="0" halting="0" meanWaitingTime="0.00" meanTravelTime="-1.00" meanSpeed="0.62" meanSpeedRelative="0.04" duration="1580858888871"/>
    <step time="00:00:02" loaded="3" inserted="2" running="2" waiting="1" ended="0" arrived="0" collisions="0" teleports="0" halting="0" meanWaitingTime="0.00" meanTravelTime="-1.00" meanSpeed="1.22" meanSpeedRelative="0.09" duration="1580858889172"/>
    <step time="00:00:03" loaded="3" inserted="2" running="2" waiting="1" ended="0" arrived="0" collisions="0" teleports="0" halting="0" meanWaitingTime="0.00" meanTravelTime="-1.00" meanSpeed="1.87" meanSpeedRelative="0.13" duration="1580858889472"/>
    <step time="00:00:04" loaded="3" inserted="2" running="2" waiting="1" ended="0" arrived="0" collisions="0" teleports="0" halting="0" meanWaitingTime="0.00" meanTravelTime="-1.00" meanSpeed="2.44" meanSpeedRelative="0.18" duration="1580858889772"/>
    <step time="00:00:05" loaded="3" inserted="3" running="3" waiting="0" ended="0" arrived="0" collisions="0" teleports="0" halting="1" meanWaitingTime="1.33" meanTravelTime="-1.00" meanSpeed="1.99" meanSpeedRelative="0.14" duration="1580858890076"/>
    <step time="00:00:06" loaded="3" inserted="3" running="3" waiting="0" ended="0" arrived="0" collisions="0" teleports="0" halting="0" meanWaitingTime="1.33" meanTravelTime="-1.00" meanSpeed="2.56" meanSpeedRelative="0.18" duration="1580858890382"/>
    <step time="00:00:07" loaded="3" inserted="3" running="3" waiting="0" ended="0" arrived="0" collisions="0" teleports="0" halting="0" meanWaitingTime="1.33" meanTravelTime="-1.00" meanSpeed="3.21" meanSpeedRelative="0.23" duration="1580858890687"/>
    <step time="00:00:08" loaded="3" inserted="3" running="3" waiting="0" ended="0" arrived="0" collisions="0" teleports="0" halting="0" meanWaitingTime="1.33" meanTravelTime="-1.00" meanSpeed="3.74" meanSpeedRelative="0.27" duration="1580858890989"/>
    <step time="00:00:09" loaded="3" inserted="3" running="3" waiting="0" ended="0" arrived="0" collisions="0" teleports="0" halting="0" meanWaitingTime="1.33" meanTravelTime="-1.00" meanSpeed="4.07" meanSpeedRelative="0.29" duration="1580858891295"/>
    <step time="00:00:10" loaded="3" inserted="3" running="3" waiting="0" ended="0" arrived="0" collisions="0" teleports="0" halting="0" meanWaitingTime="1.33" meanTravelTime="-1.00" meanSpeed="4.21" meanSpeedRelative="0.30" duration="1580858891596"/>
    <step time="00:00:11" loaded="3" inserted="3" running="3" waiting="0" ended="0" arrived="0" collisions="0" teleports="0" halting="0" meanWaitingTime="1.33" meanTravelTime="-1.00" meanSpeed="4.52" meanSpeedRelative="0.33" duration="1580858891902"/>
    <step time="00:00:12" loaded="3" inserted="3" running="3" waiting="0" ended="0" arrived="0" collisions="0" teleports="0" halting="0" meanWaitingTime="1.33" meanTravelTime="-1.00" meanSpeed="4.62" meanSpeedRelative="0.33" duration="1580858892203"/>
    <step time="00:00:13" loaded="3" inserted="3" running="3" waiting="0" ended="0" arrived="0" collisions="0" teleports="0" halting="0" meanWaitingTime="1.33" meanTravelTime="-1.00" meanSpeed="4.86" meanSpeedRelative="0.35" duration="1580858892508"/>
    <step time="00:00:14" loaded="3" inserted="3" running="3" waiting="0" ended="0" arrived="0" collisions="0" teleports="0" halting="0" meanWaitingTime="1.33" meanTravelTime="-1.00" meanSpeed="4.78" meanSpeedRelative="0.34" duration="1580858892816"/>
    <step time="00:00:15" loaded="3" inserted="3" running="3" waiting="0" ended="0" arrived="0" collisions="0" teleports="0" halting="0" meanWaitingTime="1.33" meanTravelTime="-1.00" meanSpeed="4.73" meanSpeedRelative="0.34" duration="1580858893121"/>
    <step time="00:00:16" loaded="3" inserted="3" running="3" waiting="0" ended="0" arrived="0" collisions="0" teleports="0" halting="0" meanWaitingTime="1.33" meanTravelTime="-1.00" meanSpeed="4.68" meanSpeedRelative="0.34" duration="1580858893426"/>
    <step time="00:00:17" loaded="3" inserted="3" running="3" waiting="0" ended="0" arrived="0" collisions="0" teleports="0" halting="0" meanWaitingTime="1.33" meanTravelTime="-1.00" meanSpeed="4.83" meanSpeedRelative="0.35" duration="1580858893726"/>
    <step time="00:00:18" loaded="3" inserted="3" running="3" waiting="0" ended="0" arrived="0" collisions="0" teleports="0" halting="0" meanWaitingTime="1.33" meanTravelTime="-1.00" meanSpeed="4.89" meanSpeedRelative="0.35" duration="1580858894028"/>
    <step time="00:00:19" loaded="3" inserted="3" running="3" waiting="0" ended="0" arrived="0" collisions="0" teleports="0" halting="0" meanWaitingTime="1.33" meanTravelTime="-1.00" meanSpeed="4.75" meanSpeedRelative="0.34" duration="1580858894331"/>
    <step time="00:00:20" loaded="3" inserted="3" running="3" waiting="0" ended="0" arrived="0" collisions="0" teleports="0" halting="0" meanWaitingTime="1.33" meanTravelTime="-1.00" meanSpeed="4.78" meanSpeedRelative="0.34" duration="1580858894634"/>
    <step time="00:00:21" loaded="3" inserted="3" running="3" waiting="0" ended="0" arrived="0" collisions="0" teleports="0" halting="0" meanWaitingTime="1.33" meanTravelTime="-1.00" meanSpeed="4.89" meanSpeedRelative="0.35" duration="1580858894940"/>
    <step time="00:00:22" loaded="3" inserted="3" running="3" waiting="0" ended="0" arrived="0" collisions="0" teleports="0" halting="0" meanWaitingTime="1.33" meanTravelTime="-1.00" meanSpeed="4.85" meanSpeedRelative="0.35" duration="1580858895243"/>
    <step time="00:00:23" loaded="3" inserted="3" running="3" waiting="0" ended="0" arrived="0" collisions="0" teleports="0" halting="0" meanWaitingTime="1.33" meanTravelTime="-1.00" meanSpeed="4.90" meanSpeedRelative="0.35" duration="1580858895549"/>
    <step time="00:00:24" loaded="3" inserted="3" running="1" waiting="0" ended="2" arrived="2" collisions="0" teleports="0" halting="0" meanWaitingTime="1.33" meanTravelTime="24.00" meanSpeed="4.89" meanSpeedRelative="0.35" duration="1580858895850"/>
    <step time="00:00:25" loaded="3" inserted="3" running="1" waiting="0" ended="2" arrived="2" collisions="0" teleports="0" halting="0" meanWaitingTime="1.33" meanTravelTime="24.00" meanSpeed="4.91" meanSpeedRelative="0.35" duration="1580858896152"/>
    <step time="00:00:26" loaded="3" inserted="3" running="1" waiting="0" ended="2" arrived="2" collisions="0" teleports="0" halting="0" meanWaitingTime="1.33" meanTravelTime="24.00" meanSpeed="4.93" meanSpeedRelative="0.36" duration="1580858896457"/>
    <step time="00:00:27" loaded="3" inserted="3" running="1" waiting="0" ended="2" arrived="2" collisions="0" teleports="0" halting="0" meanWaitingTime="1.33" meanTravelTime="24.00" meanSpeed="4.77" meanSpeedRelative="0.34" duration="1580858896758"/>
    <step time="00:00:28" loaded="3" inserted="3" running="1" waiting="0" ended="2" arrived="2" collisions="0" teleports="0" halting="0" meanWaitingTime="1.33" meanTravelTime="24.00" meanSpeed="4.90" meanSpeedRelative="0.35" duration="1580858897063"/>
    <step time="00:00:29" loaded="3" inserted="3" running="0" waiting="0" ended="3" arrived="3" collisions="0" teleports="0" halting="0" meanWaitingTime="1.33" meanTravelTime="24.00" meanSpeed="-1.00" meanSpeedRelative="-1.00" duration="1580858897370"/>
    <step time="00:00:30" loaded="3" inserted="3" running="0" waiting="0" ended="3" arrived="3" collisions="0" teleports="0" halting="0" meanWaitingTime="1.33" meanTravelTime="24.00" meanSpeed="-1.00" meanSpeedRelative="-1.00" duration="1580858897669"/>
</summary>
