<?xml version="1.0" encoding="UTF-8"?>

<!-- generated on Thu Feb  6 19:54:21 2020 by Eclipse SUMO GUI Version 1.2.0
<configuration xmlns:xsi="http://www.w3.org/2001/XMLSchema-instance" xsi:noNamespaceSchemaLocation="http://sumo.dlr.de/xsd/sumoConfiguration.xsd">

    <input>
        <net-file value="junctionProximityTest.net.xml"/>
        <route-files value="junctionProximityTestRoutes.rou.xml"/>
    </input>

    <output>
        <write-license value="true"/>
        <human-readable-time value="true"/>
        <summary-output value="results/summaryOutput25car.txt"/>
        <tripinfo-output value="results/tripInfo25car.txt"/>
    </output>

    <time>
        <begin value="0"/>
        <step-length value="0.05"/>
    </time>

    <processing>
        <route-steps value="250"/>
    </processing>

    <report>
        <verbose value="true"/>
        <duration-log.statistics value="true"/>
        <no-step-log value="true"/>
    </report>

    <traci_server>
        <remote-port value="63152"/>
    </traci_server>

    <gui_only>
        <gui-settings-file value="settings.settings.xml"/>
        <quit-on-end value="true"/>
        <start value="true"/>
        <tracker-interval value="0.05"/>
    </gui_only>

</configuration>
-->

<summary xmlns:xsi="http://www.w3.org/2001/XMLSchema-instance" xsi:noNamespaceSchemaLocation="http://sumo.dlr.de/xsd/summary_file.xsd">
    <step time="00:00:00.00" loaded="6" inserted="2" running="2" waiting="3" ended="0" arrived="0" collisions="0" teleports="0" halting="2" meanWaitingTime="0.00" meanTravelTime="-1.00" meanSpeed="0.00" meanSpeedRelative="0.00" duration="1581018861515"/>
    <step time="00:00:00.05" loaded="6" inserted="2" running="2" waiting="3" ended="0" arrived="0" collisions="0" teleports="0" halting="2" meanWaitingTime="0.00" meanTravelTime="-1.00" meanSpeed="0.04" meanSpeedRelative="0.00" duration="1581018861521"/>
    <step time="00:00:00.10" loaded="6" inserted="2" running="2" waiting="3" ended="0" arrived="0" collisions="0" teleports="0" halting="2" meanWaitingTime="0.00" meanTravelTime="-1.00" meanSpeed="0.08" meanSpeedRelative="0.01" duration="1581018861533"/>
    <step time="00:00:00.15" loaded="6" inserted="2" running="2" waiting="3" ended="0" arrived="0" collisions="0" teleports="0" halting="0" meanWaitingTime="0.00" meanTravelTime="-1.00" meanSpeed="0.12" meanSpeedRelative="0.01" duration="1581018861542"/>
    <step time="00:00:00.20" loaded="6" inserted="2" running="2" waiting="3" ended="0" arrived="0" collisions="0" teleports="0" halting="0" meanWaitingTime="0.00" meanTravelTime="-1.00" meanSpeed="0.16" meanSpeedRelative="0.01" duration="1581018861554"/>
    <step time="00:00:00.25" loaded="6" inserted="2" running="2" waiting="3" ended="0" arrived="0" collisions="0" teleports="0" halting="0" meanWaitingTime="0.00" meanTravelTime="-1.00" meanSpeed="0.19" meanSpeedRelative="0.01" duration="1581018861564"/>
    <step time="00:00:00.30" loaded="6" inserted="2" running="2" waiting="3" ended="0" arrived="0" collisions="0" teleports="0" halting="0" meanWaitingTime="0.00" meanTravelTime="-1.00" meanSpeed="0.23" meanSpeedRelative="0.02" duration="1581018861573"/>
    <step time="00:00:00.35" loaded="6" inserted="2" running="2" waiting="3" ended="0" arrived="0" collisions="0" teleports="0" halting="0" meanWaitingTime="0.00" meanTravelTime="-1.00" meanSpeed="0.27" meanSpeedRelative="0.02" duration="1581018861584"/>
    <step time="00:00:00.40" loaded="6" inserted="2" running="2" waiting="3" ended="0" arrived="0" collisions="0" teleports="0" halting="0" meanWaitingTime="0.00" meanTravelTime="-1.00" meanSpeed="0.31" meanSpeedRelative="0.02" duration="1581018861596"/>
    <step time="00:00:00.45" loaded="6" inserted="2" running="2" waiting="3" ended="0" arrived="0" collisions="0" teleports="0" halting="0" meanWaitingTime="0.00" meanTravelTime="-1.00" meanSpeed="0.34" meanSpeedRelative="0.02" duration="1581018861611"/>
    <step time="00:00:00.50" loaded="6" inserted="2" running="2" waiting="3" ended="0" arrived="0" collisions="0" teleports="0" halting="0" meanWaitingTime="0.00" meanTravelTime="-1.00" meanSpeed="0.38" meanSpeedRelative="0.03" duration="1581018861622"/>
    <step time="00:00:00.55" loaded="6" inserted="2" running="2" waiting="3" ended="0" arrived="0" collisions="0" teleports="0" halting="0" meanWaitingTime="0.00" meanTravelTime="-1.00" meanSpeed="0.42" meanSpeedRelative="0.03" duration="1581018861636"/>
    <step time="00:00:00.60" loaded="6" inserted="2" running="2" waiting="3" ended="0" arrived="0" collisions="0" teleports="0" halting="0" meanWaitingTime="0.00" meanTravelTime="-1.00" meanSpeed="0.45" meanSpeedRelative="0.03" duration="1581018861644"/>
    <step time="00:00:00.65" loaded="6" inserted="2" running="2" waiting="3" ended="0" arrived="0" collisions="0" teleports="0" halting="0" meanWaitingTime="0.00" meanTravelTime="-1.00" meanSpeed="0.49" meanSpeedRelative="0.04" duration="1581018861653"/>
    <step time="00:00:00.70" loaded="6" inserted="2" running="2" waiting="3" ended="0" arrived="0" collisions="0" teleports="0" halting="0" meanWaitingTime="0.00" meanTravelTime="-1.00" meanSpeed="0.52" meanSpeedRelative="0.04" duration="1581018861663"/>
    <step time="00:00:00.75" loaded="6" inserted="2" running="2" waiting="3" ended="0" arrived="0" collisions="0" teleports="0" halting="0" meanWaitingTime="0.00" meanTravelTime="-1.00" meanSpeed="0.55" meanSpeedRelative="0.04" duration="1581018861674"/>
    <step time="00:00:00.80" loaded="6" inserted="2" running="2" waiting="3" ended="0" arrived="0" collisions="0" teleports="0" halting="0" meanWaitingTime="0.00" meanTravelTime="-1.00" meanSpeed="0.58" meanSpeedRelative="0.04" duration="1581018861685"/>
    <step time="00:00:00.85" loaded="6" inserted="2" running="2" waiting="3" ended="0" arrived="0" collisions="0" teleports="0" halting="0" meanWaitingTime="0.00" meanTravelTime="-1.00" meanSpeed="0.61" meanSpeedRelative="0.04" duration="1581018861695"/>
    <step time="00:00:00.90" loaded="6" inserted="2" running="2" waiting="3" ended="0" arrived="0" collisions="0" teleports="0" halting="0" meanWaitingTime="0.00" meanTravelTime="-1.00" meanSpeed="0.64" meanSpeedRelative="0.05" duration="1581018861705"/>
    <step time="00:00:00.95" loaded="6" inserted="2" running="2" waiting="3" ended="0" arrived="0" collisions="0" teleports="0" halting="0" meanWaitingTime="0.00" meanTravelTime="-1.00" meanSpeed="0.67" meanSpeedRelative="0.05" duration="1581018861717"/>
    <step time="00:00:01.00" loaded="6" inserted="2" running="2" waiting="3" ended="0" arrived="0" collisions="0" teleports="0" halting="0" meanWaitingTime="0.00" meanTravelTime="-1.00" meanSpeed="0.70" meanSpeedRelative="0.05" duration="1581018861725"/>
    <step time="00:00:01.05" loaded="6" inserted="2" running="2" waiting="3" ended="0" arrived="0" collisions="0" teleports="0" halting="0" meanWaitingTime="0.00" meanTravelTime="-1.00" meanSpeed="0.73" meanSpeedRelative="0.05" duration="1581018861736"/>
    <step time="00:00:01.10" loaded="6" inserted="2" running="2" waiting="3" ended="0" arrived="0" collisions="0" teleports="0" halting="0" meanWaitingTime="0.00" meanTravelTime="-1.00" meanSpeed="0.77" meanSpeedRelative="0.06" duration="1581018861750"/>
    <step time="00:00:01.15" loaded="6" inserted="2" running="2" waiting="3" ended="0" arrived="0" collisions="0" teleports="0" halting="0" meanWaitingTime="0.00" meanTravelTime="-1.00" meanSpeed="0.80" meanSpeedRelative="0.06" duration="1581018861758"/>
    <step time="00:00:01.20" loaded="6" inserted="2" running="2" waiting="3" ended="0" arrived="0" collisions="0" teleports="0" halting="0" meanWaitingTime="0.00" meanTravelTime="-1.00" meanSpeed="0.83" meanSpeedRelative="0.06" duration="1581018861771"/>
    <step time="00:00:01.25" loaded="6" inserted="2" running="2" waiting="3" ended="0" arrived="0" collisions="0" teleports="0" halting="0" meanWaitingTime="0.00" meanTravelTime="-1.00" meanSpeed="0.86" meanSpeedRelative="0.06" duration="1581018861781"/>
    <step time="00:00:01.30" loaded="6" inserted="2" running="2" waiting="3" ended="0" arrived="0" collisions="0" teleports="0" halting="0" meanWaitingTime="0.00" meanTravelTime="-1.00" meanSpeed="0.90" meanSpeedRelative="0.06" duration="1581018861791"/>
    <step time="00:00:01.35" loaded="6" inserted="2" running="2" waiting="3" ended="0" arrived="0" collisions="0" teleports="0" halting="0" meanWaitingTime="0.00" meanTravelTime="-1.00" meanSpeed="0.92" meanSpeedRelative="0.07" duration="1581018861801"/>
    <step time="00:00:01.40" loaded="6" inserted="2" running="2" waiting="3" ended="0" arrived="0" collisions="0" teleports="0" halting="0" meanWaitingTime="0.00" meanTravelTime="-1.00" meanSpeed="0.96" meanSpeedRelative="0.07" duration="1581018861810"/>
    <step time="00:00:01.45" loaded="6" inserted="2" running="2" waiting="3" ended="0" arrived="0" collisions="0" teleports="0" halting="0" meanWaitingTime="0.00" meanTravelTime="-1.00" meanSpeed="0.99" meanSpeedRelative="0.07" duration="1581018861820"/>
    <step time="00:00:01.50" loaded="6" inserted="2" running="2" waiting="3" ended="0" arrived="0" collisions="0" teleports="0" halting="0" meanWaitingTime="0.00" meanTravelTime="-1.00" meanSpeed="1.02" meanSpeedRelative="0.07" duration="1581018861833"/>
    <step time="00:00:01.55" loaded="6" inserted="2" running="2" waiting="3" ended="0" arrived="0" collisions="0" teleports="0" halting="0" meanWaitingTime="0.00" meanTravelTime="-1.00" meanSpeed="1.05" meanSpeedRelative="0.08" duration="1581018861843"/>
    <step time="00:00:01.60" loaded="6" inserted="2" running="2" waiting="3" ended="0" arrived="0" collisions="0" teleports="0" halting="0" meanWaitingTime="0.00" meanTravelTime="-1.00" meanSpeed="1.09" meanSpeedRelative="0.08" duration="1581018861853"/>
    <step time="00:00:01.65" loaded="6" inserted="2" running="2" waiting="3" ended="0" arrived="0" collisions="0" teleports="0" halting="0" meanWaitingTime="0.00" meanTravelTime="-1.00" meanSpeed="1.12" meanSpeedRelative="0.08" duration="1581018861863"/>
    <step time="00:00:01.70" loaded="6" inserted="2" running="2" waiting="3" ended="0" arrived="0" collisions="0" teleports="0" halting="0" meanWaitingTime="0.00" meanTravelTime="-1.00" meanSpeed="1.15" meanSpeedRelative="0.08" duration="1581018861874"/>
    <step time="00:00:01.75" loaded="6" inserted="2" running="2" waiting="3" ended="0" arrived="0" collisions="0" teleports="0" halting="0" meanWaitingTime="0.00" meanTravelTime="-1.00" meanSpeed="1.17" meanSpeedRelative="0.08" duration="1581018861884"/>
    <step time="00:00:01.80" loaded="6" inserted="2" running="2" waiting="3" ended="0" arrived="0" collisions="0" teleports="0" halting="0" meanWaitingTime="0.00" meanTravelTime="-1.00" meanSpeed="1.20" meanSpeedRelative="0.09" duration="1581018861894"/>
    <step time="00:00:01.85" loaded="6" inserted="2" running="2" waiting="3" ended="0" arrived="0" collisions="0" teleports="0" halting="0" meanWaitingTime="0.00" meanTravelTime="-1.00" meanSpeed="1.23" meanSpeedRelative="0.09" duration="1581018861904"/>
    <step time="00:00:01.90" loaded="6" inserted="2" running="2" waiting="3" ended="0" arrived="0" collisions="0" teleports="0" halting="0" meanWaitingTime="0.00" meanTravelTime="-1.00" meanSpeed="1.26" meanSpeedRelative="0.09" duration="1581018861918"/>
    <step time="00:00:01.95" loaded="6" inserted="2" running="2" waiting="3" ended="0" arrived="0" collisions="0" teleports="0" halting="0" meanWaitingTime="0.00" meanTravelTime="-1.00" meanSpeed="1.29" meanSpeedRelative="0.09" duration="1581018861929"/>
    <step time="00:00:02.00" loaded="6" inserted="2" running="2" waiting="3" ended="0" arrived="0" collisions="0" teleports="0" halting="0" meanWaitingTime="0.00" meanTravelTime="-1.00" meanSpeed="1.31" meanSpeedRelative="0.09" duration="1581018861938"/>
    <step time="00:00:02.05" loaded="6" inserted="2" running="2" waiting="3" ended="0" arrived="0" collisions="0" teleports="0" halting="0" meanWaitingTime="0.00" meanTravelTime="-1.00" meanSpeed="1.34" meanSpeedRelative="0.10" duration="1581018861949"/>
    <step time="00:00:02.10" loaded="6" inserted="2" running="2" waiting="3" ended="0" arrived="0" collisions="0" teleports="0" halting="0" meanWaitingTime="0.00" meanTravelTime="-1.00" meanSpeed="1.37" meanSpeedRelative="0.10" duration="1581018861960"/>
    <step time="00:00:02.15" loaded="6" inserted="2" running="2" waiting="3" ended="0" arrived="0" collisions="0" teleports="0" halting="0" meanWaitingTime="0.00" meanTravelTime="-1.00" meanSpeed="1.41" meanSpeedRelative="0.10" duration="1581018861969"/>
    <step time="00:00:02.20" loaded="6" inserted="2" running="2" waiting="3" ended="0" arrived="0" collisions="0" teleports="0" halting="0" meanWaitingTime="0.00" meanTravelTime="-1.00" meanSpeed="1.44" meanSpeedRelative="0.10" duration="1581018861985"/>
    <step time="00:00:02.25" loaded="6" inserted="2" running="2" waiting="3" ended="0" arrived="0" collisions="0" teleports="0" halting="0" meanWaitingTime="0.00" meanTravelTime="-1.00" meanSpeed="1.47" meanSpeedRelative="0.11" duration="1581018861996"/>
    <step time="00:00:02.30" loaded="6" inserted="2" running="2" waiting="3" ended="0" arrived="0" collisions="0" teleports="0" halting="0" meanWaitingTime="0.00" meanTravelTime="-1.00" meanSpeed="1.50" meanSpeedRelative="0.11" duration="1581018862004"/>
    <step time="00:00:02.35" loaded="6" inserted="2" running="2" waiting="3" ended="0" arrived="0" collisions="0" teleports="0" halting="0" meanWaitingTime="0.00" meanTravelTime="-1.00" meanSpeed="1.54" meanSpeedRelative="0.11" duration="1581018862016"/>
    <step time="00:00:02.40" loaded="6" inserted="2" running="2" waiting="3" ended="0" arrived="0" collisions="0" teleports="0" halting="0" meanWaitingTime="0.00" meanTravelTime="-1.00" meanSpeed="1.57" meanSpeedRelative="0.11" duration="1581018862028"/>
    <step time="00:00:02.45" loaded="6" inserted="2" running="2" waiting="3" ended="0" arrived="0" collisions="0" teleports="0" halting="0" meanWaitingTime="0.00" meanTravelTime="-1.00" meanSpeed="1.59" meanSpeedRelative="0.11" duration="1581018862038"/>
    <step time="00:00:02.50" loaded="6" inserted="2" running="2" waiting="3" ended="0" arrived="0" collisions="0" teleports="0" halting="0" meanWaitingTime="0.00" meanTravelTime="-1.00" meanSpeed="1.63" meanSpeedRelative="0.12" duration="1581018862050"/>
    <step time="00:00:02.55" loaded="6" inserted="2" running="2" waiting="3" ended="0" arrived="0" collisions="0" teleports="0" halting="0" meanWaitingTime="0.00" meanTravelTime="-1.00" meanSpeed="1.66" meanSpeedRelative="0.12" duration="1581018862059"/>
    <step time="00:00:02.60" loaded="6" inserted="2" running="2" waiting="3" ended="0" arrived="0" collisions="0" teleports="0" halting="0" meanWaitingTime="0.00" meanTravelTime="-1.00" meanSpeed="1.69" meanSpeedRelative="0.12" duration="1581018862069"/>
    <step time="00:00:02.65" loaded="6" inserted="2" running="2" waiting="3" ended="0" arrived="0" collisions="0" teleports="0" halting="0" meanWaitingTime="0.00" meanTravelTime="-1.00" meanSpeed="1.73" meanSpeedRelative="0.12" duration="1581018862082"/>
    <step time="00:00:02.70" loaded="6" inserted="2" running="2" waiting="3" ended="0" arrived="0" collisions="0" teleports="0" halting="0" meanWaitingTime="0.00" meanTravelTime="-1.00" meanSpeed="1.76" meanSpeedRelative="0.13" duration="1581018862093"/>
    <step time="00:00:02.75" loaded="6" inserted="2" running="2" waiting="3" ended="0" arrived="0" collisions="0" teleports="0" halting="0" meanWaitingTime="0.00" meanTravelTime="-1.00" meanSpeed="1.80" meanSpeedRelative="0.13" duration="1581018862104"/>
    <step time="00:00:02.80" loaded="6" inserted="2" running="2" waiting="3" ended="0" arrived="0" collisions="0" teleports="0" halting="0" meanWaitingTime="0.00" meanTravelTime="-1.00" meanSpeed="1.83" meanSpeedRelative="0.13" duration="1581018862115"/>
    <step time="00:00:02.85" loaded="6" inserted="2" running="2" waiting="3" ended="0" arrived="0" collisions="0" teleports="0" halting="0" meanWaitingTime="0.00" meanTravelTime="-1.00" meanSpeed="1.86" meanSpeedRelative="0.13" duration="1581018862126"/>
    <step time="00:00:02.90" loaded="6" inserted="2" running="2" waiting="3" ended="0" arrived="0" collisions="0" teleports="0" halting="0" meanWaitingTime="0.00" meanTravelTime="-1.00" meanSpeed="1.89" meanSpeedRelative="0.14" duration="1581018862137"/>
    <step time="00:00:02.95" loaded="6" inserted="2" running="2" waiting="3" ended="0" arrived="0" collisions="0" teleports="0" halting="0" meanWaitingTime="0.00" meanTravelTime="-1.00" meanSpeed="1.93" meanSpeedRelative="0.14" duration="1581018862149"/>
    <step time="00:00:03.00" loaded="6" inserted="2" running="2" waiting="3" ended="0" arrived="0" collisions="0" teleports="0" halting="0" meanWaitingTime="0.00" meanTravelTime="-1.00" meanSpeed="1.95" meanSpeedRelative="0.14" duration="1581018862160"/>
    <step time="00:00:03.05" loaded="6" inserted="2" running="2" waiting="3" ended="0" arrived="0" collisions="0" teleports="0" halting="0" meanWaitingTime="0.00" meanTravelTime="-1.00" meanSpeed="1.98" meanSpeedRelative="0.14" duration="1581018862170"/>
    <step time="00:00:03.10" loaded="6" inserted="2" running="2" waiting="3" ended="0" arrived="0" collisions="0" teleports="0" halting="0" meanWaitingTime="0.00" meanTravelTime="-1.00" meanSpeed="2.01" meanSpeedRelative="0.14" duration="1581018862183"/>
    <step time="00:00:03.15" loaded="6" inserted="2" running="2" waiting="3" ended="0" arrived="0" collisions="0" teleports="0" halting="0" meanWaitingTime="0.00" meanTravelTime="-1.00" meanSpeed="2.04" meanSpeedRelative="0.15" duration="1581018862194"/>
    <step time="00:00:03.20" loaded="6" inserted="2" running="2" waiting="3" ended="0" arrived="0" collisions="0" teleports="0" halting="0" meanWaitingTime="0.00" meanTravelTime="-1.00" meanSpeed="2.07" meanSpeedRelative="0.15" duration="1581018862204"/>
    <step time="00:00:03.25" loaded="6" inserted="2" running="2" waiting="3" ended="0" arrived="0" collisions="0" teleports="0" halting="0" meanWaitingTime="0.00" meanTravelTime="-1.00" meanSpeed="2.09" meanSpeedRelative="0.15" duration="1581018862213"/>
    <step time="00:00:03.30" loaded="6" inserted="2" running="2" waiting="3" ended="0" arrived="0" collisions="0" teleports="0" halting="0" meanWaitingTime="0.00" meanTravelTime="-1.00" meanSpeed="2.12" meanSpeedRelative="0.15" duration="1581018862227"/>
    <step time="00:00:03.35" loaded="6" inserted="2" running="2" waiting="3" ended="0" arrived="0" collisions="0" teleports="0" halting="0" meanWaitingTime="0.00" meanTravelTime="-1.00" meanSpeed="2.16" meanSpeedRelative="0.16" duration="1581018862237"/>
    <step time="00:00:03.40" loaded="6" inserted="2" running="2" waiting="3" ended="0" arrived="0" collisions="0" teleports="0" halting="0" meanWaitingTime="0.00" meanTravelTime="-1.00" meanSpeed="2.19" meanSpeedRelative="0.16" duration="1581018862251"/>
    <step time="00:00:03.45" loaded="6" inserted="2" running="2" waiting="3" ended="0" arrived="0" collisions="0" teleports="0" halting="0" meanWaitingTime="0.00" meanTravelTime="-1.00" meanSpeed="2.22" meanSpeedRelative="0.16" duration="1581018862258"/>
    <step time="00:00:03.50" loaded="6" inserted="2" running="2" waiting="3" ended="0" arrived="0" collisions="0" teleports="0" halting="0" meanWaitingTime="0.00" meanTravelTime="-1.00" meanSpeed="2.24" meanSpeedRelative="0.16" duration="1581018862268"/>
    <step time="00:00:03.55" loaded="6" inserted="2" running="2" waiting="3" ended="0" arrived="0" collisions="0" teleports="0" halting="0" meanWaitingTime="0.00" meanTravelTime="-1.00" meanSpeed="2.27" meanSpeedRelative="0.16" duration="1581018862278"/>
    <step time="00:00:03.60" loaded="6" inserted="2" running="2" waiting="3" ended="0" arrived="0" collisions="0" teleports="0" halting="0" meanWaitingTime="0.00" meanTravelTime="-1.00" meanSpeed="2.31" meanSpeedRelative="0.17" duration="1581018862289"/>
    <step time="00:00:03.65" loaded="6" inserted="2" running="2" waiting="3" ended="0" arrived="0" collisions="0" teleports="0" halting="0" meanWaitingTime="0.00" meanTravelTime="-1.00" meanSpeed="2.34" meanSpeedRelative="0.17" duration="1581018862300"/>
    <step time="00:00:03.70" loaded="6" inserted="2" running="2" waiting="3" ended="0" arrived="0" collisions="0" teleports="0" halting="0" meanWaitingTime="0.00" meanTravelTime="-1.00" meanSpeed="2.37" meanSpeedRelative="0.17" duration="1581018862310"/>
    <step time="00:00:03.75" loaded="6" inserted="2" running="2" waiting="3" ended="0" arrived="0" collisions="0" teleports="0" halting="0" meanWaitingTime="0.00" meanTravelTime="-1.00" meanSpeed="2.41" meanSpeedRelative="0.17" duration="1581018862321"/>
    <step time="00:00:03.80" loaded="6" inserted="2" running="2" waiting="3" ended="0" arrived="0" collisions="0" teleports="0" halting="0" meanWaitingTime="0.00" meanTravelTime="-1.00" meanSpeed="2.44" meanSpeedRelative="0.18" duration="1581018862333"/>
    <step time="00:00:03.85" loaded="6" inserted="2" running="2" waiting="3" ended="0" arrived="0" collisions="0" teleports="0" halting="0" meanWaitingTime="0.00" meanTravelTime="-1.00" meanSpeed="2.46" meanSpeedRelative="0.18" duration="1581018862343"/>
    <step time="00:00:03.90" loaded="6" inserted="2" running="2" waiting="3" ended="0" arrived="0" collisions="0" teleports="0" halting="0" meanWaitingTime="0.00" meanTravelTime="-1.00" meanSpeed="2.50" meanSpeedRelative="0.18" duration="1581018862354"/>
    <step time="00:00:03.95" loaded="6" inserted="2" running="2" waiting="3" ended="0" arrived="0" collisions="0" teleports="0" halting="0" meanWaitingTime="0.00" meanTravelTime="-1.00" meanSpeed="2.53" meanSpeedRelative="0.18" duration="1581018862366"/>
    <step time="00:00:04.00" loaded="6" inserted="2" running="2" waiting="3" ended="0" arrived="0" collisions="0" teleports="0" halting="0" meanWaitingTime="0.00" meanTravelTime="-1.00" meanSpeed="2.56" meanSpeedRelative="0.18" duration="1581018862379"/>
    <step time="00:00:04.05" loaded="6" inserted="2" running="2" waiting="3" ended="0" arrived="0" collisions="0" teleports="0" halting="0" meanWaitingTime="0.00" meanTravelTime="-1.00" meanSpeed="2.59" meanSpeedRelative="0.19" duration="1581018862389"/>
    <step time="00:00:04.10" loaded="6" inserted="2" running="2" waiting="3" ended="0" arrived="0" collisions="0" teleports="0" halting="0" meanWaitingTime="0.00" meanTravelTime="-1.00" meanSpeed="2.62" meanSpeedRelative="0.19" duration="1581018862402"/>
    <step time="00:00:04.15" loaded="6" inserted="2" running="2" waiting="3" ended="0" arrived="0" collisions="0" teleports="0" halting="0" meanWaitingTime="0.00" meanTravelTime="-1.00" meanSpeed="2.65" meanSpeedRelative="0.19" duration="1581018862412"/>
    <step time="00:00:04.20" loaded="6" inserted="2" running="2" waiting="3" ended="0" arrived="0" collisions="0" teleports="0" halting="0" meanWaitingTime="0.00" meanTravelTime="-1.00" meanSpeed="2.68" meanSpeedRelative="0.19" duration="1581018862421"/>
    <step time="00:00:04.25" loaded="6" inserted="2" running="2" waiting="3" ended="0" arrived="0" collisions="0" teleports="0" halting="0" meanWaitingTime="0.00" meanTravelTime="-1.00" meanSpeed="2.70" meanSpeedRelative="0.19" duration="1581018862436"/>
    <step time="00:00:04.30" loaded="6" inserted="2" running="2" waiting="3" ended="0" arrived="0" collisions="0" teleports="0" halting="0" meanWaitingTime="0.00" meanTravelTime="-1.00" meanSpeed="2.73" meanSpeedRelative="0.20" duration="1581018862442"/>
    <step time="00:00:04.35" loaded="6" inserted="2" running="2" waiting="3" ended="0" arrived="0" collisions="0" teleports="0" halting="0" meanWaitingTime="0.00" meanTravelTime="-1.00" meanSpeed="2.76" meanSpeedRelative="0.20" duration="1581018862452"/>
    <step time="00:00:04.40" loaded="6" inserted="2" running="2" waiting="3" ended="0" arrived="0" collisions="0" teleports="0" halting="0" meanWaitingTime="0.00" meanTravelTime="-1.00" meanSpeed="2.78" meanSpeedRelative="0.20" duration="1581018862465"/>
    <step time="00:00:04.45" loaded="6" inserted="2" running="2" waiting="3" ended="0" arrived="0" collisions="0" teleports="0" halting="0" meanWaitingTime="0.00" meanTravelTime="-1.00" meanSpeed="2.81" meanSpeedRelative="0.20" duration="1581018862479"/>
    <step time="00:00:04.50" loaded="6" inserted="2" running="2" waiting="3" ended="0" arrived="0" collisions="0" teleports="0" halting="0" meanWaitingTime="0.00" meanTravelTime="-1.00" meanSpeed="2.84" meanSpeedRelative="0.20" duration="1581018862489"/>
    <step time="00:00:04.55" loaded="6" inserted="2" running="2" waiting="3" ended="0" arrived="0" collisions="0" teleports="0" halting="0" meanWaitingTime="0.00" meanTravelTime="-1.00" meanSpeed="2.87" meanSpeedRelative="0.21" duration="1581018862502"/>
    <step time="00:00:04.60" loaded="6" inserted="2" running="2" waiting="3" ended="0" arrived="0" collisions="0" teleports="0" halting="0" meanWaitingTime="0.00" meanTravelTime="-1.00" meanSpeed="2.90" meanSpeedRelative="0.21" duration="1581018862510"/>
    <step time="00:00:04.65" loaded="6" inserted="2" running="2" waiting="3" ended="0" arrived="0" collisions="0" teleports="0" halting="0" meanWaitingTime="0.00" meanTravelTime="-1.00" meanSpeed="2.93" meanSpeedRelative="0.21" duration="1581018862524"/>
    <step time="00:00:04.70" loaded="6" inserted="2" running="2" waiting="3" ended="0" arrived="0" collisions="0" teleports="0" halting="0" meanWaitingTime="0.00" meanTravelTime="-1.00" meanSpeed="2.95" meanSpeedRelative="0.21" duration="1581018862536"/>
    <step time="00:00:04.75" loaded="6" inserted="2" running="2" waiting="3" ended="0" arrived="0" collisions="0" teleports="0" halting="0" meanWaitingTime="0.00" meanTravelTime="-1.00" meanSpeed="2.99" meanSpeedRelative="0.22" duration="1581018862543"/>
    <step time="00:00:04.80" loaded="6" inserted="4" running="4" waiting="1" ended="0" arrived="0" collisions="0" teleports="0" halting="2" meanWaitingTime="2.40" meanTravelTime="-1.00" meanSpeed="1.51" meanSpeedRelative="0.11" duration="1581018862555"/>
    <step time="00:00:04.85" loaded="6" inserted="4" running="4" waiting="1" ended="0" arrived="0" collisions="0" teleports="0" halting="2" meanWaitingTime="2.40" meanTravelTime="-1.00" meanSpeed="1.54" meanSpeedRelative="0.11" duration="1581018862569"/>
    <step time="00:00:04.90" loaded="6" inserted="4" running="4" waiting="1" ended="0" arrived="0" collisions="0" teleports="0" halting="2" meanWaitingTime="2.40" meanTravelTime="-1.00" meanSpeed="1.58" meanSpeedRelative="0.11" duration="1581018862574"/>
    <step time="00:00:04.95" loaded="6" inserted="4" running="4" waiting="1" ended="0" arrived="0" collisions="0" teleports="0" halting="0" meanWaitingTime="2.40" meanTravelTime="-1.00" meanSpeed="1.61" meanSpeedRelative="0.12" duration="1581018862586"/>
    <step time="00:00:05.00" loaded="6" inserted="4" running="4" waiting="1" ended="0" arrived="0" collisions="0" teleports="0" halting="0" meanWaitingTime="2.40" meanTravelTime="-1.00" meanSpeed="1.64" meanSpeedRelative="0.12" duration="1581018862602"/>
    <step time="00:00:05.05" loaded="6" inserted="4" running="4" waiting="1" ended="0" arrived="0" collisions="0" teleports="0" halting="0" meanWaitingTime="2.40" meanTravelTime="-1.00" meanSpeed="1.68" meanSpeedRelative="0.12" duration="1581018862606"/>
    <step time="00:00:05.10" loaded="6" inserted="4" running="4" waiting="1" ended="0" arrived="0" collisions="0" teleports="0" halting="0" meanWaitingTime="2.40" meanTravelTime="-1.00" meanSpeed="1.71" meanSpeedRelative="0.12" duration="1581018862621"/>
    <step time="00:00:05.15" loaded="6" inserted="4" running="4" waiting="1" ended="0" arrived="0" collisions="0" teleports="0" halting="0" meanWaitingTime="2.40" meanTravelTime="-1.00" meanSpeed="1.74" meanSpeedRelative="0.13" duration="1581018862630"/>
    <step time="00:00:05.20" loaded="6" inserted="4" running="4" waiting="1" ended="0" arrived="0" collisions="0" teleports="0" halting="0" meanWaitingTime="2.40" meanTravelTime="-1.00" meanSpeed="1.77" meanSpeedRelative="0.13" duration="1581018862641"/>
    <step time="00:00:05.25" loaded="6" inserted="4" running="4" waiting="1" ended="0" arrived="0" collisions="0" teleports="0" halting="0" meanWaitingTime="2.40" meanTravelTime="-1.00" meanSpeed="1.81" meanSpeedRelative="0.13" duration="1581018862654"/>
    <step time="00:00:05.30" loaded="6" inserted="4" running="4" waiting="1" ended="0" arrived="0" collisions="0" teleports="0" halting="0" meanWaitingTime="2.40" meanTravelTime="-1.00" meanSpeed="1.84" meanSpeedRelative="0.13" duration="1581018862661"/>
    <step time="00:00:05.35" loaded="6" inserted="4" running="4" waiting="1" ended="0" arrived="0" collisions="0" teleports="0" halting="0" meanWaitingTime="2.40" meanTravelTime="-1.00" meanSpeed="1.87" meanSpeedRelative="0.13" duration="1581018862674"/>
    <step time="00:00:05.40" loaded="6" inserted="4" running="4" waiting="1" ended="0" arrived="0" collisions="0" teleports="0" halting="0" meanWaitingTime="2.40" meanTravelTime="-1.00" meanSpeed="1.91" meanSpeedRelative="0.14" duration="1581018862684"/>
    <step time="00:00:05.45" loaded="6" inserted="4" running="4" waiting="1" ended="0" arrived="0" collisions="0" teleports="0" halting="0" meanWaitingTime="2.40" meanTravelTime="-1.00" meanSpeed="1.95" meanSpeedRelative="0.14" duration="1581018862689"/>
    <step time="00:00:05.50" loaded="6" inserted="4" running="4" waiting="1" ended="0" arrived="0" collisions="0" teleports="0" halting="0" meanWaitingTime="2.40" meanTravelTime="-1.00" meanSpeed="1.98" meanSpeedRelative="0.14" duration="1581018862701"/>
    <step time="00:00:05.55" loaded="6" inserted="4" running="4" waiting="1" ended="0" arrived="0" collisions="0" teleports="0" halting="0" meanWaitingTime="2.40" meanTravelTime="-1.00" meanSpeed="2.01" meanSpeedRelative="0.14" duration="1581018862712"/>