<?xml version="1.0" encoding="UTF-8"?>

<!-- generated on Tue 28 Jan 12:23:16 2020 by Eclipse SUMO GUI Version 1.2.0
<configuration xmlns:xsi="http://www.w3.org/2001/XMLSchema-instance" xsi:noNamespaceSchemaLocation="http://sumo.dlr.de/xsd/sumoConfiguration.xsd">

    <input>
        <net-file value="/Users/jamie/Documents/University/Third%20Year/Project/GitHub/Sandbox/Grid%20Network/myGridNetwork/net.net.xml"/>
        <route-files value="/Users/jamie/Documents/University/Third%20Year/Project/GitHub/Sandbox/Grid%20Network/myGridNetwork/routes.rou.xml"/>
    </input>

    <output>
        <write-license value="true"/>
        <human-readable-time value="true"/>
        <summary-output value="/Users/jamie/Documents/University/Third%20Year/Project/GitHub/Sandbox/Grid%20Network/myGridNetwork/results/summaryOutput.txt"/>
        <tripinfo-output value="/Users/jamie/Documents/University/Third%20Year/Project/GitHub/Sandbox/Grid%20Network/myGridNetwork/results/tripInfo.txt"/>
    </output>

    <time>
        <begin value="0"/>
        <step-length value="0.05"/>
    </time>

    <processing>
        <route-steps value="250"/>
    </processing>

    <report>
        <verbose value="true"/>
        <duration-log.statistics value="true"/>
        <no-step-log value="true"/>
    </report>

    <gui_only>
        <gui-settings-file value="/Users/jamie/Documents/University/Third%20Year/Project/GitHub/Sandbox/Grid%20Network/myGridNetwork/settings.settings.xml"/>
        <start value="false"/>
        <tracker-interval value="0.05"/>
    </gui_only>

</configuration>
-->

<summary xmlns:xsi="http://www.w3.org/2001/XMLSchema-instance" xsi:noNamespaceSchemaLocation="http://sumo.dlr.de/xsd/summary_file.xsd">
    <step time="00:00:00.00" loaded="2" inserted="1" running="1" waiting="0" ended="0" arrived="0" collisions="0" teleports="0" halting="1" meanWaitingTime="0.00" meanTravelTime="-1.00" meanSpeed="0.00" meanSpeedRelative="0.00" duration="1580214198267"/>
    <step time="00:00:00.05" loaded="2" inserted="1" running="1" waiting="0" ended="0" arrived="0" collisions="0" teleports="0" halting="0" meanWaitingTime="0.00" meanTravelTime="-1.00" meanSpeed="0.13" meanSpeedRelative="0.01" duration="1580214198269"/>
    <step time="00:00:00.10" loaded="2" inserted="1" running="1" waiting="0" ended="0" arrived="0" collisions="0" teleports="0" halting="0" meanWaitingTime="0.00" meanTravelTime="-1.00" meanSpeed="0.25" meanSpeedRelative="0.02" duration="1580214198270"/>
    <step time="00:00:00.15" loaded="2" inserted="1" running="1" waiting="0" ended="0" arrived="0" collisions="0" teleports="0" halting="0" meanWaitingTime="0.00" meanTravelTime="-1.00" meanSpeed="0.38" meanSpeedRelative="0.03" duration="1580214198272"/>
    <step time="00:00:00.20" loaded="2" inserted="1" running="1" waiting="0" ended="0" arrived="0" collisions="0" teleports="0" halting="0" meanWaitingTime="0.00" meanTravelTime="-1.00" meanSpeed="0.50" meanSpeedRelative="0.04" duration="1580214198273"/>
    <step time="00:00:00.25" loaded="2" inserted="1" running="1" waiting="0" ended="0" arrived="0" collisions="0" teleports="0" halting="0" meanWaitingTime="0.00" meanTravelTime="-1.00" meanSpeed="0.62" meanSpeedRelative="0.04" duration="1580214198274"/>
    <step time="00:00:00.30" loaded="2" inserted="1" running="1" waiting="0" ended="0" arrived="0" collisions="0" teleports="0" halting="0" meanWaitingTime="0.00" meanTravelTime="-1.00" meanSpeed="0.74" meanSpeedRelative="0.05" duration="1580214198276"/>
    <step time="00:00:00.35" loaded="2" inserted="1" running="1" waiting="0" ended="0" arrived="0" collisions="0" teleports="0" halting="0" meanWaitingTime="0.00" meanTravelTime="-1.00" meanSpeed="0.86" meanSpeedRelative="0.06" duration="1580214198277"/>
    <step time="00:00:00.40" loaded="2" inserted="1" running="1" waiting="0" ended="0" arrived="0" collisions="0" teleports="0" halting="0" meanWaitingTime="0.00" meanTravelTime="-1.00" meanSpeed="0.96" meanSpeedRelative="0.07" duration="1580214198278"/>
    <step time="00:00:00.45" loaded="2" inserted="1" running="1" waiting="0" ended="0" arrived="0" collisions="0" teleports="0" halting="0" meanWaitingTime="0.00" meanTravelTime="-1.00" meanSpeed="1.09" meanSpeedRelative="0.08" duration="1580214198280"/>
    <step time="00:00:00.50" loaded="2" inserted="1" running="1" waiting="0" ended="0" arrived="0" collisions="0" teleports="0" halting="0" meanWaitingTime="0.00" meanTravelTime="-1.00" meanSpeed="1.21" meanSpeedRelative="0.09" duration="1580214198281"/>
    <step time="00:00:00.55" loaded="2" inserted="1" running="1" waiting="0" ended="0" arrived="0" collisions="0" teleports="0" halting="0" meanWaitingTime="0.00" meanTravelTime="-1.00" meanSpeed="1.31" meanSpeedRelative="0.09" duration="1580214198283"/>
    <step time="00:00:00.60" loaded="2" inserted="1" running="1" waiting="0" ended="0" arrived="0" collisions="0" teleports="0" halting="0" meanWaitingTime="0.00" meanTravelTime="-1.00" meanSpeed="1.43" meanSpeedRelative="0.10" duration="1580214198284"/>
    <step time="00:00:00.65" loaded="2" inserted="1" running="1" waiting="0" ended="0" arrived="0" collisions="0" teleports="0" halting="0" meanWaitingTime="0.00" meanTravelTime="-1.00" meanSpeed="1.54" meanSpeedRelative="0.11" duration="1580214198285"/>
    <step time="00:00:00.70" loaded="2" inserted="1" running="1" waiting="0" ended="0" arrived="0" collisions="0" teleports="0" halting="0" meanWaitingTime="0.00" meanTravelTime="-1.00" meanSpeed="1.65" meanSpeedRelative="0.12" duration="1580214198287"/>
    <step time="00:00:00.75" loaded="2" inserted="1" running="1" waiting="0" ended="0" arrived="0" collisions="0" teleports="0" halting="0" meanWaitingTime="0.00" meanTravelTime="-1.00" meanSpeed="1.74" meanSpeedRelative="0.13" duration="1580214198288"/>
    <step time="00:00:00.80" loaded="2" inserted="1" running="1" waiting="0" ended="0" arrived="0" collisions="0" teleports="0" halting="0" meanWaitingTime="0.00" meanTravelTime="-1.00" meanSpeed="1.87" meanSpeedRelative="0.13" duration="1580214198289"/>
    <step time="00:00:00.85" loaded="2" inserted="1" running="1" waiting="0" ended="0" arrived="0" collisions="0" teleports="0" halting="0" meanWaitingTime="0.00" meanTravelTime="-1.00" meanSpeed="1.95" meanSpeedRelative="0.14" duration="1580214198291"/>
    <step time="00:00:00.90" loaded="2" inserted="1" running="1" waiting="0" ended="0" arrived="0" collisions="0" teleports="0" halting="0" meanWaitingTime="0.00" meanTravelTime="-1.00" meanSpeed="2.04" meanSpeedRelative="0.15" duration="1580214198292"/>
    <step time="00:00:00.95" loaded="2" inserted="1" running="1" waiting="0" ended="0" arrived="0" collisions="0" teleports="0" halting="0" meanWaitingTime="0.00" meanTravelTime="-1.00" meanSpeed="2.13" meanSpeedRelative="0.15" duration="1580214198293"/>
    <step time="00:00:01.00" loaded="25" inserted="2" running="2" waiting="0" ended="0" arrived="0" collisions="0" teleports="0" halting="1" meanWaitingTime="0.00" meanTravelTime="-1.00" meanSpeed="1.10" meanSpeedRelative="0.08" duration="1580214198295"/>
    <step time="00:00:01.05" loaded="25" inserted="2" running="2" waiting="0" ended="0" arrived="0" collisions="0" teleports="0" halting="0" meanWaitingTime="0.00" meanTravelTime="-1.00" meanSpeed="1.21" meanSpeedRelative="0.09" duration="1580214198298"/>
    <step time="00:00:01.10" loaded="25" inserted="2" running="2" waiting="0" ended="0" arrived="0" collisions="0" teleports="0" halting="0" meanWaitingTime="0.00" meanTravelTime="-1.00" meanSpeed="1.33" meanSpeedRelative="0.10" duration="1580214198299"/>
    <step time="00:00:01.15" loaded="25" inserted="2" running="2" waiting="0" ended="0" arrived="0" collisions="0" teleports="0" halting="0" meanWaitingTime="0.00" meanTravelTime="-1.00" meanSpeed="1.44" meanSpeedRelative="0.10" duration="1580214198301"/>
    <step time="00:00:01.20" loaded="25" inserted="2" running="2" waiting="0" ended="0" arrived="0" collisions="0" teleports="0" halting="0" meanWaitingTime="0.00" meanTravelTime="-1.00" meanSpeed="1.56" meanSpeedRelative="0.11" duration="1580214198302"/>
    <step time="00:00:01.25" loaded="25" inserted="2" running="2" waiting="0" ended="0" arrived="0" collisions="0" teleports="0" halting="0" meanWaitingTime="0.00" meanTravelTime="-1.00" meanSpeed="1.66" meanSpeedRelative="0.12" duration="1580214198303"/>
    <step time="00:00:01.30" loaded="25" inserted="2" running="2" waiting="0" ended="0" arrived="0" collisions="0" teleports="0" halting="0" meanWaitingTime="0.00" meanTravelTime="-1.00" meanSpeed="1.77" meanSpeedRelative="0.13" duration="1580214198304"/>
    <step time="00:00:01.35" loaded="25" inserted="2" running="2" waiting="0" ended="0" arrived="0" collisions="0" teleports="0" halting="0" meanWaitingTime="0.00" meanTravelTime="-1.00" meanSpeed="1.87" meanSpeedRelative="0.13" duration="1580214198305"/>
    <step time="00:00:01.40" loaded="25" inserted="2" running="2" waiting="0" ended="0" arrived="0" collisions="0" teleports="0" halting="0" meanWaitingTime="0.00" meanTravelTime="-1.00" meanSpeed="1.97" meanSpeedRelative="0.14" duration="1580214198306"/>
    <step time="00:00:01.45" loaded="25" inserted="2" running="2" waiting="0" ended="0" arrived="0" collisions="0" teleports="0" halting="0" meanWaitingTime="0.00" meanTravelTime="-1.00" meanSpeed="2.07" meanSpeedRelative="0.15" duration="1580214198307"/>
    <step time="00:00:01.50" loaded="25" inserted="2" running="2" waiting="0" ended="0" arrived="0" collisions="0" teleports="0" halting="0" meanWaitingTime="0.00" meanTravelTime="-1.00" meanSpeed="2.19" meanSpeedRelative="0.16" duration="1580214198309"/>
    <step time="00:00:01.55" loaded="25" inserted="2" running="2" waiting="0" ended="0" arrived="0" collisions="0" teleports="0" halting="0" meanWaitingTime="0.00" meanTravelTime="-1.00" meanSpeed="2.31" meanSpeedRelative="0.17" duration="1580214198310"/>
    <step time="00:00:01.60" loaded="25" inserted="2" running="2" waiting="0" ended="0" arrived="0" collisions="0" teleports="0" halting="0" meanWaitingTime="0.00" meanTravelTime="-1.00" meanSpeed="2.42" meanSpeedRelative="0.17" duration="1580214198311"/>
    <step time="00:00:01.65" loaded="25" inserted="2" running="2" waiting="0" ended="0" arrived="0" collisions="0" teleports="0" halting="0" meanWaitingTime="0.00" meanTravelTime="-1.00" meanSpeed="2.51" meanSpeedRelative="0.18" duration="1580214198312"/>
    <step time="00:00:01.70" loaded="25" inserted="2" running="2" waiting="0" ended="0" arrived="0" collisions="0" teleports="0" halting="0" meanWaitingTime="0.00" meanTravelTime="-1.00" meanSpeed="2.64" meanSpeedRelative="0.19" duration="1580214198313"/>
    <step time="00:00:01.75" loaded="25" inserted="2" running="2" waiting="0" ended="0" arrived="0" collisions="0" teleports="0" halting="0" meanWaitingTime="0.00" meanTravelTime="-1.00" meanSpeed="2.74" meanSpeedRelative="0.20" duration="1580214198314"/>
    <step time="00:00:01.80" loaded="25" inserted="2" running="2" waiting="0" ended="0" arrived="0" collisions="0" teleports="0" halting="0" meanWaitingTime="0.00" meanTravelTime="-1.00" meanSpeed="2.85" meanSpeedRelative="0.21" duration="1580214198315"/>
    <step time="00:00:01.85" loaded="25" inserted="2" running="2" waiting="0" ended="0" arrived="0" collisions="0" teleports="0" halting="0" meanWaitingTime="0.00" meanTravelTime="-1.00" meanSpeed="2.96" meanSpeedRelative="0.21" duration="1580214198316"/>
    <step time="00:00:01.90" loaded="25" inserted="2" running="2" waiting="0" ended="0" arrived="0" collisions="0" teleports="0" halting="0" meanWaitingTime="0.00" meanTravelTime="-1.00" meanSpeed="3.06" meanSpeedRelative="0.22" duration="1580214198317"/>
    <step time="00:00:01.95" loaded="25" inserted="2" running="2" waiting="0" ended="0" arrived="0" collisions="0" teleports="0" halting="0" meanWaitingTime="0.00" meanTravelTime="-1.00" meanSpeed="3.17" meanSpeedRelative="0.23" duration="1580214198318"/>
    <step time="00:00:02.00" loaded="25" inserted="3" running="3" waiting="0" ended="0" arrived="0" collisions="0" teleports="0" halting="1" meanWaitingTime="0.00" meanTravelTime="-1.00" meanSpeed="2.17" meanSpeedRelative="0.16" duration="1580214198319"/>
    <step time="00:00:02.05" loaded="25" inserted="3" running="3" waiting="0" ended="0" arrived="0" collisions="0" teleports="0" halting="0" meanWaitingTime="0.00" meanTravelTime="-1.00" meanSpeed="2.28" meanSpeedRelative="0.16" duration="1580214198320"/>
    <step time="00:00:02.10" loaded="25" inserted="3" running="3" waiting="0" ended="0" arrived="0" collisions="0" teleports="0" halting="0" meanWaitingTime="0.00" meanTravelTime="-1.00" meanSpeed="2.40" meanSpeedRelative="0.17" duration="1580214198321"/>
    <step time="00:00:02.15" loaded="25" inserted="3" running="3" waiting="0" ended="0" arrived="0" collisions="0" teleports="0" halting="0" meanWaitingTime="0.00" meanTravelTime="-1.00" meanSpeed="2.51" meanSpeedRelative="0.18" duration="1580214198322"/>
    <step time="00:00:02.20" loaded="25" inserted="3" running="3" waiting="0" ended="0" arrived="0" collisions="0" teleports="0" halting="0" meanWaitingTime="0.00" meanTravelTime="-1.00" meanSpeed="2.62" meanSpeedRelative="0.19" duration="1580214198324"/>
    <step time="00:00:02.25" loaded="25" inserted="3" running="3" waiting="0" ended="0" arrived="0" collisions="0" teleports="0" halting="0" meanWaitingTime="0.00" meanTravelTime="-1.00" meanSpeed="2.72" meanSpeedRelative="0.20" duration="1580214198325"/>
    <step time="00:00:02.30" loaded="25" inserted="3" running="3" waiting="0" ended="0" arrived="0" collisions="0" teleports="0" halting="0" meanWaitingTime="0.00" meanTravelTime="-1.00" meanSpeed="2.83" meanSpeedRelative="0.20" duration="1580214198327"/>
    <step time="00:00:02.35" loaded="25" inserted="3" running="3" waiting="0" ended="0" arrived="0" collisions="0" teleports="0" halting="0" meanWaitingTime="0.00" meanTravelTime="-1.00" meanSpeed="2.93" meanSpeedRelative="0.21" duration="1580214198328"/>
    <step time="00:00:02.40" loaded="25" inserted="3" running="3" waiting="0" ended="0" arrived="0" collisions="0" teleports="0" halting="0" meanWaitingTime="0.00" meanTravelTime="-1.00" meanSpeed="3.05" meanSpeedRelative="0.22" duration="1580214198330"/>
    <step time="00:00:02.45" loaded="25" inserted="3" running="3" waiting="0" ended="0" arrived="0" collisions="0" teleports="0" halting="0" meanWaitingTime="0.00" meanTravelTime="-1.00" meanSpeed="3.17" meanSpeedRelative="0.23" duration="1580214198331"/>
    <step time="00:00:02.50" loaded="25" inserted="3" running="3" waiting="0" ended="0" arrived="0" collisions="0" teleports="0" halting="0" meanWaitingTime="0.00" meanTravelTime="-1.00" meanSpeed="3.28" meanSpeedRelative="0.24" duration="1580214198333"/>
    <step time="00:00:02.55" loaded="25" inserted="3" running="3" waiting="0" ended="0" arrived="0" collisions="0" teleports="0" halting="0" meanWaitingTime="0.00" meanTravelTime="-1.00" meanSpeed="3.38" meanSpeedRelative="0.24" duration="1580214198334"/>
    <step time="00:00:02.60" loaded="25" inserted="3" running="3" waiting="0" ended="0" arrived="0" collisions="0" teleports="0" halting="0" meanWaitingTime="0.00" meanTravelTime="-1.00" meanSpeed="3.48" meanSpeedRelative="0.25" duration="1580214198335"/>
    <step time="00:00:02.65" loaded="25" inserted="3" running="3" waiting="0" ended="0" arrived="0" collisions="0" teleports="0" halting="0" meanWaitingTime="0.00" meanTravelTime="-1.00" meanSpeed="3.58" meanSpeedRelative="0.26" duration="1580214198336"/>
    <step time="00:00:02.70" loaded="25" inserted="3" running="3" waiting="0" ended="0" arrived="0" collisions="0" teleports="0" halting="0" meanWaitingTime="0.00" meanTravelTime="-1.00" meanSpeed="3.68" meanSpeedRelative="0.26" duration="1580214198337"/>
    <step time="00:00:02.75" loaded="25" inserted="3" running="3" waiting="0" ended="0" arrived="0" collisions="0" teleports="0" halting="0" meanWaitingTime="0.00" meanTravelTime="-1.00" meanSpeed="3.78" meanSpeedRelative="0.27" duration="1580214198338"/>
    <step time="00:00:02.80" loaded="25" inserted="3" running="3" waiting="0" ended="0" arrived="0" collisions="0" teleports="0" halting="0" meanWaitingTime="0.00" meanTravelTime="-1.00" meanSpeed="3.87" meanSpeedRelative="0.28" duration="1580214198340"/>
    <step time="00:00:02.85" loaded="25" inserted="3" running="3" waiting="0" ended="0" arrived="0" collisions="0" teleports="0" halting="0" meanWaitingTime="0.00" meanTravelTime="-1.00" meanSpeed="3.99" meanSpeedRelative="0.29" duration="1580214198341"/>
    <step time="00:00:02.90" loaded="25" inserted="3" running="3" waiting="0" ended="0" arrived="0" collisions="0" teleports="0" halting="0" meanWaitingTime="0.00" meanTravelTime="-1.00" meanSpeed="4.08" meanSpeedRelative="0.29" duration="1580214198342"/>
    <step time="00:00:02.95" loaded="25" inserted="3" running="3" waiting="0" ended="0" arrived="0" collisions="0" teleports="0" halting="0" meanWaitingTime="0.00" meanTravelTime="-1.00" meanSpeed="4.18" meanSpeedRelative="0.30" duration="1580214198343"/>
    <step time="00:00:03.00" loaded="25" inserted="4" running="4" waiting="0" ended="0" arrived="0" collisions="0" teleports="0" halting="1" meanWaitingTime="0.00" meanTravelTime="-1.00" meanSpeed="3.21" meanSpeedRelative="0.23" duration="1580214198344"/>
    <step time="00:00:03.05" loaded="25" inserted="4" running="4" waiting="0" ended="0" arrived="0" collisions="0" teleports="0" halting="0" meanWaitingTime="0.00" meanTravelTime="-1.00" meanSpeed="3.29" meanSpeedRelative="0.24" duration="1580214198346"/>
    <step time="00:00:03.10" loaded="25" inserted="4" running="4" waiting="0" ended="0" arrived="0" collisions="0" teleports="0" halting="0" meanWaitingTime="0.00" meanTravelTime="-1.00" meanSpeed="3.41" meanSpeedRelative="0.25" duration="1580214198347"/>
    <step time="00:00:03.15" loaded="25" inserted="4" running="4" waiting="0" ended="0" arrived="0" collisions="0" teleports="0" halting="0" meanWaitingTime="0.00" meanTravelTime="-1.00" meanSpeed="3.51" meanSpeedRelative="0.25" duration="1580214198348"/>
    <step time="00:00:03.20" loaded="25" inserted="4" running="4" waiting="0" ended="0" arrived="0" collisions="0" teleports="0" halting="0" meanWaitingTime="0.00" meanTravelTime="-1.00" meanSpeed="3.60" meanSpeedRelative="0.26" duration="1580214198350"/>
    <step time="00:00:03.25" loaded="25" inserted="4" running="4" waiting="0" ended="0" arrived="0" collisions="0" teleports="0" halting="0" meanWaitingTime="0.00" meanTravelTime="-1.00" meanSpeed="3.71" meanSpeedRelative="0.27" duration="1580214198351"/>
    <step time="00:00:03.30" loaded="25" inserted="4" running="4" waiting="0" ended="0" arrived="0" collisions="0" teleports="0" halting="0" meanWaitingTime="0.00" meanTravelTime="-1.00" meanSpeed="3.82" meanSpeedRelative="0.28" duration="1580214198353"/>
    <step time="00:00:03.35" loaded="25" inserted="4" running="4" waiting="0" ended="0" arrived="0" collisions="0" teleports="0" halting="0" meanWaitingTime="0.00" meanTravelTime="-1.00" meanSpeed="3.92" meanSpeedRelative="0.28" duration="1580214198354"/>
    <step time="00:00:03.40" loaded="25" inserted="4" running="4" waiting="0" ended="0" arrived="0" collisions="0" teleports="0" halting="0" meanWaitingTime="0.00" meanTravelTime="-1.00" meanSpeed="4.02" meanSpeedRelative="0.29" duration="1580214198355"/>
    <step time="00:00:03.45" loaded="25" inserted="4" running="4" waiting="0" ended="0" arrived="0" collisions="0" teleports="0" halting="0" meanWaitingTime="0.00" meanTravelTime="-1.00" meanSpeed="4.13" meanSpeedRelative="0.30" duration="1580214198357"/>
    <step time="00:00:03.50" loaded="25" inserted="4" running="4" waiting="0" ended="0" arrived="0" collisions="0" teleports="0" halting="0" meanWaitingTime="0.00" meanTravelTime="-1.00" meanSpeed="4.23" meanSpeedRelative="0.30" duration="1580214198358"/>
    <step time="00:00:03.55" loaded="25" inserted="4" running="4" waiting="0" ended="0" arrived="0" collisions="0" teleports="0" halting="0" meanWaitingTime="0.00" meanTravelTime="-1.00" meanSpeed="4.34" meanSpeedRelative="0.31" duration="1580214198360"/>
    <step time="00:00:03.60" loaded="25" inserted="4" running="4" waiting="0" ended="0" arrived="0" collisions="0" teleports="0" halting="0" meanWaitingTime="0.00" meanTravelTime="-1.00" meanSpeed="4.44" meanSpeedRelative="0.32" duration="1580214198361"/>
    <step time="00:00:03.65" loaded="25" inserted="4" running="4" waiting="0" ended="0" arrived="0" collisions="0" teleports="0" halting="0" meanWaitingTime="0.00" meanTravelTime="-1.00" meanSpeed="4.54" meanSpeedRelative="0.33" duration="1580214198363"/>
    <step time="00:00:03.70" loaded="25" inserted="4" running="4" waiting="0" ended="0" arrived="0" collisions="0" teleports="0" halting="0" meanWaitingTime="0.00" meanTravelTime="-1.00" meanSpeed="4.66" meanSpeedRelative="0.34" duration="1580214198364"/>
    <step time="00:00:03.75" loaded="25" inserted="4" running="4" waiting="0" ended="0" arrived="0" collisions="0" teleports="0" halting="0" meanWaitingTime="0.00" meanTravelTime="-1.00" meanSpeed="4.77" meanSpeedRelative="0.34" duration="1580214198366"/>
    <step time="00:00:03.80" loaded="25" inserted="4" running="4" waiting="0" ended="0" arrived="0" collisions="0" teleports="0" halting="0" meanWaitingTime="0.00" meanTravelTime="-1.00" meanSpeed="4.88" meanSpeedRelative="0.35" duration="1580214198367"/>
    <step time="00:00:03.85" loaded="25" inserted="4" running="4" waiting="0" ended="0" arrived="0" collisions="0" teleports="0" halting="0" meanWaitingTime="0.00" meanTravelTime="-1.00" meanSpeed="4.98" meanSpeedRelative="0.36" duration="1580214198368"/>
    <step time="00:00:03.90" loaded="25" inserted="4" running="4" waiting="0" ended="0" arrived="0" collisions="0" teleports="0" halting="0" meanWaitingTime="0.00" meanTravelTime="-1.00" meanSpeed="5.07" meanSpeedRelative="0.37" duration="1580214198369"/>
    <step time="00:00:03.95" loaded="25" inserted="4" running="4" waiting="0" ended="0" arrived="0" collisions="0" teleports="0" halting="0" meanWaitingTime="0.00" meanTravelTime="-1.00" meanSpeed="5.17" meanSpeedRelative="0.37" duration="1580214198370"/>
    <step time="00:00:04.00" loaded="25" inserted="5" running="5" waiting="0" ended="0" arrived="0" collisions="0" teleports="0" halting="1" meanWaitingTime="0.00" meanTravelTime="-1.00" meanSpeed="4.22" meanSpeedRelative="0.30" duration="1580214198371"/>
    <step time="00:00:04.05" loaded="25" inserted="5" running="5" waiting="0" ended="0" arrived="0" collisions="0" teleports="0" halting="0" meanWaitingTime="0.00" meanTravelTime="-1.00" meanSpeed="4.32" meanSpeedRelative="0.31" duration="1580214198372"/>
    <step time="00:00:04.10" loaded="25" inserted="5" running="5" waiting="0" ended="0" arrived="0" collisions="0" teleports="0" halting="0" meanWaitingTime="0.00" meanTravelTime="-1.00" meanSpeed="4.44" meanSpeedRelative="0.32" duration="1580214198373"/>
    <step time="00:00:04.15" loaded="25" inserted="5" running="5" waiting="0" ended="0" arrived="0" collisions="0" teleports="0" halting="0" meanWaitingTime="0.00" meanTravelTime="-1.00" meanSpeed="4.53" meanSpeedRelative="0.33" duration="1580214198375"/>
    <step time="00:00:04.20" loaded="25" inserted="5" running="5" waiting="0" ended="0" arrived="0" collisions="0" teleports="0" halting="0" meanWaitingTime="0.00" meanTravelTime="-1.00" meanSpeed="4.64" meanSpeedRelative="0.33" duration="1580214198376"/>
    <step time="00:00:04.25" loaded="25" inserted="5" running="5" waiting="0" ended="0" arrived="0" collisions="0" teleports="0" halting="0" meanWaitingTime="0.00" meanTravelTime="-1.00" meanSpeed="4.75" meanSpeedRelative="0.34" duration="1580214198378"/>
    <step time="00:00:04.30" loaded="25" inserted="5" running="5" waiting="0" ended="0" arrived="0" collisions="0" teleports="0" halting="0" meanWaitingTime="0.00" meanTravelTime="-1.00" meanSpeed="4.85" meanSpeedRelative="0.35" duration="1580214198379"/>
    <step time="00:00:04.35" loaded="25" inserted="5" running="5" waiting="0" ended="0" arrived="0" collisions="0" teleports="0" halting="0" meanWaitingTime="0.00" meanTravelTime="-1.00" meanSpeed="4.95" meanSpeedRelative="0.36" duration="1580214198381"/>
    <step time="00:00:04.40" loaded="25" inserted="5" running="5" waiting="0" ended="0" arrived="0" collisions="0" teleports="0" halting="0" meanWaitingTime="0.00" meanTravelTime="-1.00" meanSpeed="5.06" meanSpeedRelative="0.36" duration="1580214198382"/>
    <step time="00:00:04.45" loaded="25" inserted="5" running="5" waiting="0" ended="0" arrived="0" collisions="0" teleports="0" halting="0" meanWaitingTime="0.00" meanTravelTime="-1.00" meanSpeed="5.16" meanSpeedRelative="0.37" duration="1580214198383"/>
    <step time="00:00:04.50" loaded="25" inserted="5" running="5" waiting="0" ended="0" arrived="0" collisions="0" teleports="0" halting="0" meanWaitingTime="0.00" meanTravelTime="-1.00" meanSpeed="5.25" meanSpeedRelative="0.38" duration="1580214198384"/>
    <step time="00:00:04.55" loaded="25" inserted="5" running="5" waiting="0" ended="0" arrived="0" collisions="0" teleports="0" halting="0" meanWaitingTime="0.00" meanTravelTime="-1.00" meanSpeed="5.37" meanSpeedRelative="0.39" duration="1580214198386"/>
    <step time="00:00:04.60" loaded="25" inserted="5" running="5" waiting="0" ended="0" arrived="0" collisions="0" teleports="0" halting="0" meanWaitingTime="0.00" meanTravelTime="-1.00" meanSpeed="5.45" meanSpeedRelative="0.39" duration="1580214198387"/>
    <step time="00:00:04.65" loaded="25" inserted="5" running="5" waiting="0" ended="0" arrived="0" collisions="0" teleports="0" halting="0" meanWaitingTime="0.00" meanTravelTime="-1.00" meanSpeed="5.55" meanSpeedRelative="0.40" duration="1580214198388"/>
    <step time="00:00:04.70" loaded="25" inserted="5" running="5" waiting="0" ended="0" arrived="0" collisions="0" teleports="0" halting="0" meanWaitingTime="0.00" meanTravelTime="-1.00" meanSpeed="5.65" meanSpeedRelative="0.41" duration="1580214198389"/>
    <step time="00:00:04.75" loaded="25" inserted="5" running="5" waiting="0" ended="0" arrived="0" collisions="0" teleports="0" halting="0" meanWaitingTime="0.00" meanTravelTime="-1.00" meanSpeed="5.74" meanSpeedRelative="0.41" duration="1580214198391"/>
    <step time="00:00:04.80" loaded="25" inserted="5" running="5" waiting="0" ended="0" arrived="0" collisions="0" teleports="0" halting="0" meanWaitingTime="0.00" meanTravelTime="-1.00" meanSpeed="5.83" meanSpeedRelative="0.42" duration="1580214198392"/>
    <step time="00:00:04.85" loaded="25" inserted="5" running="5" waiting="0" ended="0" arrived="0" collisions="0" teleports="0" halting="0" meanWaitingTime="0.00" meanTravelTime="-1.00" meanSpeed="5.94" meanSpeedRelative="0.43" duration="1580214198394"/>
    <step time="00:00:04.90" loaded="25" inserted="5" running="5" waiting="0" ended="0" arrived="0" collisions="0" teleports="0" halting="0" meanWaitingTime="0.00" meanTravelTime="-1.00" meanSpeed="6.03" meanSpeedRelative="0.43" duration="1580214198395"/>
    <step time="00:00:04.95" loaded="25" inserted="5" running="5" waiting="0" ended="0" arrived="0" collisions="0" teleports="0" halting="0" meanWaitingTime="0.00" meanTravelTime="-1.00" meanSpeed="6.12" meanSpeedRelative="0.44" duration="1580214198396"/>
    <step time="00:00:05.00" loaded="25" inserted="6" running="6" waiting="0" ended="0" arrived="0" collisions="0" teleports="0" halting="1" meanWaitingTime="0.00" meanTravelTime="-1.00" meanSpeed="5.20" meanSpeedRelative="0.37" duration="1580214198397"/>
    <step time="00:00:05.05" loaded="25" inserted="6" running="6" waiting="0" ended="0" arrived="0" collisions="0" teleports="0" halting="0" meanWaitingTime="0.00" meanTravelTime="-1.00" meanSpeed="5.30" meanSpeedRelative="0.38" duration="1580214198398"/>
    <step time="00:00:05.10" loaded="25" inserted="6" running="6" waiting="0" ended="0" arrived="0" collisions="0" teleports="0" halting="0" meanWaitingTime="0.00" meanTravelTime="-1.00" meanSpeed="5.41" meanSpeedRelative="0.39" duration="1580214198399"/>
    <step time="00:00:05.15" loaded="25" inserted="6" running="6" waiting="0" ended="0" arrived="0" collisions="0" teleports="0" halting="0" meanWaitingTime="0.00" meanTravelTime="-1.00" meanSpeed="5.52" meanSpeedRelative="0.40" duration="1580214198400"/>
    <step time="00:00:05.20" loaded="25" inserted="6" running="6" waiting="0" ended="0" arrived="0" collisions="0" teleports="0" halting="0" meanWaitingTime="0.00" meanTravelTime="-1.00" meanSpeed="5.63" meanSpeedRelative="0.41" duration="1580214198402"/>
    <step time="00:00:05.25" loaded="25" inserted="6" running="6" waiting="0" ended="0" arrived="0" collisions="0" teleports="0" halting="0" meanWaitingTime="0.00" meanTravelTime="-1.00" meanSpeed="5.73" meanSpeedRelative="0.41" duration="1580214198403"/>
    <step time="00:00:05.30" loaded="25" inserted="6" running="6" waiting="0" ended="0" arrived="0" collisions="0" teleports="0" halting="0" meanWaitingTime="0.00" meanTravelTime="-1.00" meanSpeed="5.82" meanSpeedRelative="0.42" duration="1580214198404"/>
    <step time="00:00:05.35" loaded="25" inserted="6" running="6" waiting="0" ended="0" arrived="0" collisions="0" teleports="0" halting="0" meanWaitingTime="0.00" meanTravelTime="-1.00" meanSpeed="5.93" meanSpeedRelative="0.43" duration="1580214198405"/>
    <step time="00:00:05.40" loaded="25" inserted="6" running="6" waiting="0" ended="0" arrived="0" collisions="0" teleports="0" halting="0" meanWaitingTime="0.00" meanTravelTime="-1.00" meanSpeed="6.04" meanSpeedRelative="0.43" duration="1580214198408"/>
    <step time="00:00:05.45" loaded="25" inserted="6" running="6" waiting="0" ended="0" arrived="0" collisions="0" teleports="0" halting="0" meanWaitingTime="0.00" meanTravelTime="-1.00" meanSpeed="6.15" meanSpeedRelative="0.44" duration="1580214198410"/>