<?xml version="1.0" encoding="UTF-8"?>

<!-- generated on Sun Apr 12 12:49:50 2020 by Eclipse SUMO GUI Version 1.2.0
<configuration xmlns:xsi="http://www.w3.org/2001/XMLSchema-instance" xsi:noNamespaceSchemaLocation="http://sumo.dlr.de/xsd/sumoConfiguration.xsd">

    <input>
        <net-file value="SUMO/singleRoad2.net.xml"/>
        <route-files value="SUMO/singleRoad.rou.xml"/>
    </input>

    <output>
        <write-license value="true"/>
        <human-readable-time value="true"/>
        <summary-output value="SUMO/results/summaryOutput25car.txt"/>
        <tripinfo-output value="SUMO/results/tripInfo25car.txt"/>
    </output>

    <time>
        <begin value="0"/>
        <step-length value="0.15"/>
    </time>

    <processing>
        <lateral-resolution value="0.8"/>
        <route-steps value="250"/>
    </processing>

    <report>
        <verbose value="true"/>
        <duration-log.statistics value="true"/>
        <no-step-log value="true"/>
    </report>

    <traci_server>
        <remote-port value="56381"/>
    </traci_server>

    <gui_only>
        <gui-settings-file value="SUMO/settings.settings.xml"/>
        <quit-on-end value="true"/>
        <start value="true"/>
        <tracker-interval value="0.15"/>
    </gui_only>

</configuration>
-->

<summary xmlns:xsi="http://www.w3.org/2001/XMLSchema-instance" xsi:noNamespaceSchemaLocation="http://sumo.dlr.de/xsd/summary_file.xsd">
    <step time="00:00:00.00" loaded="2" inserted="1" running="1" waiting="0" ended="0" arrived="0" collisions="0" teleports="0" halting="1" meanWaitingTime="0.00" meanTravelTime="-1.00" meanSpeed="0.00" meanSpeedRelative="0.00" duration="1586692190696"/>
    <step time="00:00:00.15" loaded="2" inserted="1" running="1" waiting="0" ended="0" arrived="0" collisions="0" teleports="0" halting="0" meanWaitingTime="0.00" meanTravelTime="-1.00" meanSpeed="0.37" meanSpeedRelative="0.03" duration="1586692190711"/>
    <step time="00:00:00.30" loaded="2" inserted="1" running="1" waiting="0" ended="0" arrived="0" collisions="0" teleports="0" halting="0" meanWaitingTime="0.00" meanTravelTime="-1.00" meanSpeed="0.73" meanSpeedRelative="0.05" duration="1586692190726"/>
    <step time="00:00:00.45" loaded="2" inserted="1" running="1" waiting="0" ended="0" arrived="0" collisions="0" teleports="0" halting="0" meanWaitingTime="0.00" meanTravelTime="-1.00" meanSpeed="1.09" meanSpeedRelative="0.08" duration="1586692190744"/>
    <step time="00:00:00.60" loaded="2" inserted="1" running="1" waiting="0" ended="0" arrived="0" collisions="0" teleports="0" halting="0" meanWaitingTime="0.00" meanTravelTime="-1.00" meanSpeed="1.39" meanSpeedRelative="0.10" duration="1586692190760"/>
    <step time="00:00:00.75" loaded="2" inserted="1" running="1" waiting="0" ended="0" arrived="0" collisions="0" teleports="0" halting="0" meanWaitingTime="0.00" meanTravelTime="-1.00" meanSpeed="1.68" meanSpeedRelative="0.12" duration="1586692190774"/>
    <step time="00:00:00.90" loaded="2" inserted="2" running="2" waiting="0" ended="0" arrived="0" collisions="0" teleports="0" halting="1" meanWaitingTime="0.00" meanTravelTime="-1.00" meanSpeed="1.00" meanSpeedRelative="0.07" duration="1586692190792"/>
    <step time="00:00:01.05" loaded="10" inserted="2" running="2" waiting="0" ended="0" arrived="0" collisions="0" teleports="0" halting="0" meanWaitingTime="0.00" meanTravelTime="-1.00" meanSpeed="1.32" meanSpeedRelative="0.10" duration="1586692190807"/>
    <step time="00:00:01.20" loaded="10" inserted="2" running="2" waiting="0" ended="0" arrived="0" collisions="0" teleports="0" halting="0" meanWaitingTime="0.00" meanTravelTime="-1.00" meanSpeed="1.65" meanSpeedRelative="0.12" duration="1586692190826"/>
    <step time="00:00:01.35" loaded="10" inserted="2" running="2" waiting="0" ended="0" arrived="0" collisions="0" teleports="0" halting="0" meanWaitingTime="0.00" meanTravelTime="-1.00" meanSpeed="2.01" meanSpeedRelative="0.14" duration="1586692190844"/>
    <step time="00:00:01.50" loaded="10" inserted="2" running="2" waiting="0" ended="0" arrived="0" collisions="0" teleports="0" halting="0" meanWaitingTime="0.00" meanTravelTime="-1.00" meanSpeed="2.32" meanSpeedRelative="0.17" duration="1586692190861"/>
    <step time="00:00:01.65" loaded="10" inserted="2" running="2" waiting="0" ended="0" arrived="0" collisions="0" teleports="0" halting="0" meanWaitingTime="0.00" meanTravelTime="-1.00" meanSpeed="2.62" meanSpeedRelative="0.19" duration="1586692190878"/>
    <step time="00:00:01.80" loaded="10" inserted="2" running="2" waiting="0" ended="0" arrived="0" collisions="0" teleports="0" halting="0" meanWaitingTime="0.00" meanTravelTime="-1.00" meanSpeed="2.96" meanSpeedRelative="0.21" duration="1586692190893"/>
    <step time="00:00:01.95" loaded="10" inserted="2" running="2" waiting="0" ended="0" arrived="0" collisions="0" teleports="0" halting="0" meanWaitingTime="0.00" meanTravelTime="-1.00" meanSpeed="3.19" meanSpeedRelative="0.23" duration="1586692190909"/>
    <step time="00:00:02.10" loaded="10" inserted="2" running="2" waiting="0" ended="0" arrived="0" collisions="0" teleports="0" halting="0" meanWaitingTime="0.00" meanTravelTime="-1.00" meanSpeed="3.46" meanSpeedRelative="0.25" duration="1586692190927"/>
    <step time="00:00:02.25" loaded="10" inserted="2" running="2" waiting="0" ended="0" arrived="0" collisions="0" teleports="0" halting="0" meanWaitingTime="0.00" meanTravelTime="-1.00" meanSpeed="3.74" meanSpeedRelative="0.27" duration="1586692190943"/>
    <step time="00:00:02.40" loaded="10" inserted="2" running="2" waiting="0" ended="0" arrived="0" collisions="0" teleports="0" halting="0" meanWaitingTime="0.00" meanTravelTime="-1.00" meanSpeed="3.97" meanSpeedRelative="0.29" duration="1586692190961"/>
    <step time="00:00:02.55" loaded="10" inserted="2" running="2" waiting="0" ended="0" arrived="0" collisions="0" teleports="0" halting="0" meanWaitingTime="0.00" meanTravelTime="-1.00" meanSpeed="4.27" meanSpeedRelative="0.31" duration="1586692190977"/>
    <step time="00:00:02.70" loaded="10" inserted="2" running="2" waiting="0" ended="0" arrived="0" collisions="0" teleports="0" halting="0" meanWaitingTime="0.00" meanTravelTime="-1.00" meanSpeed="4.41" meanSpeedRelative="0.32" duration="1586692190994"/>
    <step time="00:00:02.85" loaded="10" inserted="2" running="2" waiting="0" ended="0" arrived="0" collisions="0" teleports="0" halting="0" meanWaitingTime="0.00" meanTravelTime="-1.00" meanSpeed="4.53" meanSpeedRelative="0.33" duration="1586692191013"/>
    <step time="00:00:03.00" loaded="10" inserted="2" running="2" waiting="0" ended="0" arrived="0" collisions="0" teleports="0" halting="0" meanWaitingTime="0.00" meanTravelTime="-1.00" meanSpeed="4.74" meanSpeedRelative="0.34" duration="1586692191032"/>
    <step time="00:00:03.15" loaded="10" inserted="2" running="2" waiting="0" ended="0" arrived="0" collisions="0" teleports="0" halting="0" meanWaitingTime="0.00" meanTravelTime="-1.00" meanSpeed="4.85" meanSpeedRelative="0.35" duration="1586692191050"/>
    <step time="00:00:03.30" loaded="10" inserted="2" running="2" waiting="0" ended="0" arrived="0" collisions="0" teleports="0" halting="0" meanWaitingTime="0.00" meanTravelTime="-1.00" meanSpeed="4.91" meanSpeedRelative="0.35" duration="1586692191065"/>
    <step time="00:00:03.45" loaded="10" inserted="2" running="2" waiting="0" ended="0" arrived="0" collisions="0" teleports="0" halting="0" meanWaitingTime="0.00" meanTravelTime="-1.00" meanSpeed="4.90" meanSpeedRelative="0.35" duration="1586692191085"/>
    <step time="00:00:03.60" loaded="10" inserted="2" running="2" waiting="0" ended="0" arrived="0" collisions="0" teleports="0" halting="0" meanWaitingTime="0.00" meanTravelTime="-1.00" meanSpeed="4.91" meanSpeedRelative="0.35" duration="1586692191101"/>
    <step time="00:00:03.75" loaded="10" inserted="2" running="2" waiting="0" ended="0" arrived="0" collisions="0" teleports="0" halting="0" meanWaitingTime="0.00" meanTravelTime="-1.00" meanSpeed="4.90" meanSpeedRelative="0.35" duration="1586692191118"/>
    <step time="00:00:03.90" loaded="10" inserted="2" running="2" waiting="0" ended="0" arrived="0" collisions="0" teleports="0" halting="0" meanWaitingTime="0.00" meanTravelTime="-1.00" meanSpeed="4.93" meanSpeedRelative="0.36" duration="1586692191134"/>
    <step time="00:00:04.05" loaded="10" inserted="2" running="2" waiting="0" ended="0" arrived="0" collisions="0" teleports="0" halting="0" meanWaitingTime="0.00" meanTravelTime="-1.00" meanSpeed="4.95" meanSpeedRelative="0.36" duration="1586692191151"/>
    <step time="00:00:04.20" loaded="10" inserted="2" running="2" waiting="0" ended="0" arrived="0" collisions="0" teleports="0" halting="0" meanWaitingTime="0.00" meanTravelTime="-1.00" meanSpeed="4.95" meanSpeedRelative="0.36" duration="1586692191165"/>
    <step time="00:00:04.35" loaded="10" inserted="2" running="2" waiting="0" ended="0" arrived="0" collisions="0" teleports="0" halting="0" meanWaitingTime="0.00" meanTravelTime="-1.00" meanSpeed="4.94" meanSpeedRelative="0.36" duration="1586692191179"/>
    <step time="00:00:04.50" loaded="10" inserted="2" running="2" waiting="0" ended="0" arrived="0" collisions="0" teleports="0" halting="0" meanWaitingTime="0.00" meanTravelTime="-1.00" meanSpeed="4.86" meanSpeedRelative="0.35" duration="1586692191195"/>
    <step time="00:00:04.65" loaded="10" inserted="2" running="2" waiting="0" ended="0" arrived="0" collisions="0" teleports="0" halting="0" meanWaitingTime="0.00" meanTravelTime="-1.00" meanSpeed="4.88" meanSpeedRelative="0.35" duration="1586692191210"/>
    <step time="00:00:04.80" loaded="10" inserted="2" running="2" waiting="0" ended="0" arrived="0" collisions="0" teleports="0" halting="0" meanWaitingTime="0.00" meanTravelTime="-1.00" meanSpeed="4.83" meanSpeedRelative="0.35" duration="1586692191229"/>
    <step time="00:00:04.95" loaded="10" inserted="2" running="2" waiting="0" ended="0" arrived="0" collisions="0" teleports="0" halting="0" meanWaitingTime="0.00" meanTravelTime="-1.00" meanSpeed="4.90" meanSpeedRelative="0.35" duration="1586692191245"/>
    <step time="00:00:05.10" loaded="10" inserted="2" running="2" waiting="0" ended="0" arrived="0" collisions="0" teleports="0" halting="0" meanWaitingTime="0.00" meanTravelTime="-1.00" meanSpeed="4.90" meanSpeedRelative="0.35" duration="1586692191263"/>
    <step time="00:00:05.25" loaded="10" inserted="2" running="2" waiting="0" ended="0" arrived="0" collisions="0" teleports="0" halting="0" meanWaitingTime="0.00" meanTravelTime="-1.00" meanSpeed="4.94" meanSpeedRelative="0.36" duration="1586692191283"/>
    <step time="00:00:05.40" loaded="10" inserted="2" running="2" waiting="0" ended="0" arrived="0" collisions="0" teleports="0" halting="0" meanWaitingTime="0.00" meanTravelTime="-1.00" meanSpeed="4.91" meanSpeedRelative="0.35" duration="1586692191298"/>
    <step time="00:00:05.55" loaded="10" inserted="2" running="2" waiting="0" ended="0" arrived="0" collisions="0" teleports="0" halting="0" meanWaitingTime="0.00" meanTravelTime="-1.00" meanSpeed="4.99" meanSpeedRelative="0.36" duration="1586692191315"/>
    <step time="00:00:05.70" loaded="10" inserted="2" running="2" waiting="0" ended="0" arrived="0" collisions="0" teleports="0" halting="0" meanWaitingTime="0.00" meanTravelTime="-1.00" meanSpeed="4.91" meanSpeedRelative="0.35" duration="1586692191331"/>
    <step time="00:00:05.85" loaded="10" inserted="2" running="2" waiting="0" ended="0" arrived="0" collisions="0" teleports="0" halting="0" meanWaitingTime="0.00" meanTravelTime="-1.00" meanSpeed="4.89" meanSpeedRelative="0.35" duration="1586692191347"/>
    <step time="00:00:06.00" loaded="10" inserted="2" running="2" waiting="0" ended="0" arrived="0" collisions="0" teleports="0" halting="0" meanWaitingTime="0.00" meanTravelTime="-1.00" meanSpeed="4.89" meanSpeedRelative="0.35" duration="1586692191365"/>
    <step time="00:00:06.15" loaded="10" inserted="2" running="2" waiting="0" ended="0" arrived="0" collisions="0" teleports="0" halting="0" meanWaitingTime="0.00" meanTravelTime="-1.00" meanSpeed="4.87" meanSpeedRelative="0.35" duration="1586692191379"/>
    <step time="00:00:06.30" loaded="10" inserted="2" running="2" waiting="0" ended="0" arrived="0" collisions="0" teleports="0" halting="0" meanWaitingTime="0.00" meanTravelTime="-1.00" meanSpeed="4.97" meanSpeedRelative="0.36" duration="1586692191399"/>
    <step time="00:00:06.45" loaded="10" inserted="2" running="2" waiting="0" ended="0" arrived="0" collisions="0" teleports="0" halting="0" meanWaitingTime="0.00" meanTravelTime="-1.00" meanSpeed="4.90" meanSpeedRelative="0.35" duration="1586692191417"/>
    <step time="00:00:06.60" loaded="10" inserted="2" running="2" waiting="0" ended="0" arrived="0" collisions="0" teleports="0" halting="0" meanWaitingTime="0.00" meanTravelTime="-1.00" meanSpeed="4.92" meanSpeedRelative="0.35" duration="1586692191434"/>
    <step time="00:00:06.75" loaded="10" inserted="2" running="2" waiting="0" ended="0" arrived="0" collisions="0" teleports="0" halting="0" meanWaitingTime="0.00" meanTravelTime="-1.00" meanSpeed="4.96" meanSpeedRelative="0.36" duration="1586692191451"/>
    <step time="00:00:06.90" loaded="10" inserted="2" running="2" waiting="0" ended="0" arrived="0" collisions="0" teleports="0" halting="0" meanWaitingTime="0.00" meanTravelTime="-1.00" meanSpeed="4.96" meanSpeedRelative="0.36" duration="1586692191467"/>
    <step time="00:00:07.05" loaded="10" inserted="2" running="2" waiting="0" ended="0" arrived="0" collisions="0" teleports="0" halting="0" meanWaitingTime="0.00" meanTravelTime="-1.00" meanSpeed="4.92" meanSpeedRelative="0.35" duration="1586692191485"/>
    <step time="00:00:07.20" loaded="10" inserted="2" running="2" waiting="0" ended="0" arrived="0" collisions="0" teleports="0" halting="0" meanWaitingTime="0.00" meanTravelTime="-1.00" meanSpeed="4.82" meanSpeedRelative="0.35" duration="1586692191499"/>
    <step time="00:00:07.35" loaded="10" inserted="2" running="2" waiting="0" ended="0" arrived="0" collisions="0" teleports="0" halting="0" meanWaitingTime="0.00" meanTravelTime="-1.00" meanSpeed="4.90" meanSpeedRelative="0.35" duration="1586692191518"/>
    <step time="00:00:07.50" loaded="10" inserted="2" running="2" waiting="0" ended="0" arrived="0" collisions="0" teleports="0" halting="0" meanWaitingTime="0.00" meanTravelTime="-1.00" meanSpeed="4.92" meanSpeedRelative="0.35" duration="1586692191534"/>
    <step time="00:00:07.65" loaded="10" inserted="2" running="2" waiting="0" ended="0" arrived="0" collisions="0" teleports="0" halting="0" meanWaitingTime="0.00" meanTravelTime="-1.00" meanSpeed="4.92" meanSpeedRelative="0.35" duration="1586692191551"/>
    <step time="00:00:07.80" loaded="10" inserted="2" running="2" waiting="0" ended="0" arrived="0" collisions="0" teleports="0" halting="0" meanWaitingTime="0.00" meanTravelTime="-1.00" meanSpeed="4.94" meanSpeedRelative="0.36" duration="1586692191565"/>
    <step time="00:00:07.95" loaded="10" inserted="2" running="2" waiting="0" ended="0" arrived="0" collisions="0" teleports="0" halting="0" meanWaitingTime="0.00" meanTravelTime="-1.00" meanSpeed="4.89" meanSpeedRelative="0.35" duration="1586692191585"/>
    <step time="00:00:08.10" loaded="10" inserted="2" running="2" waiting="0" ended="0" arrived="0" collisions="0" teleports="0" halting="0" meanWaitingTime="0.00" meanTravelTime="-1.00" meanSpeed="4.92" meanSpeedRelative="0.35" duration="1586692191602"/>
    <step time="00:00:08.25" loaded="10" inserted="2" running="2" waiting="0" ended="0" arrived="0" collisions="0" teleports="0" halting="0" meanWaitingTime="0.00" meanTravelTime="-1.00" meanSpeed="4.92" meanSpeedRelative="0.35" duration="1586692191616"/>
    <step time="00:00:08.40" loaded="10" inserted="2" running="2" waiting="0" ended="0" arrived="0" collisions="0" teleports="0" halting="0" meanWaitingTime="0.00" meanTravelTime="-1.00" meanSpeed="4.90" meanSpeedRelative="0.35" duration="1586692191632"/>
    <step time="00:00:08.55" loaded="10" inserted="2" running="2" waiting="0" ended="0" arrived="0" collisions="0" teleports="0" halting="0" meanWaitingTime="0.00" meanTravelTime="-1.00" meanSpeed="4.84" meanSpeedRelative="0.35" duration="1586692191646"/>
    <step time="00:00:08.70" loaded="10" inserted="2" running="2" waiting="0" ended="0" arrived="0" collisions="0" teleports="0" halting="0" meanWaitingTime="0.00" meanTravelTime="-1.00" meanSpeed="4.93" meanSpeedRelative="0.36" duration="1586692191661"/>
    <step time="00:00:08.85" loaded="10" inserted="2" running="2" waiting="0" ended="0" arrived="0" collisions="0" teleports="0" halting="0" meanWaitingTime="0.00" meanTravelTime="-1.00" meanSpeed="4.92" meanSpeedRelative="0.35" duration="1586692191675"/>
    <step time="00:00:09.00" loaded="10" inserted="2" running="2" waiting="0" ended="0" arrived="0" collisions="0" teleports="0" halting="0" meanWaitingTime="0.00" meanTravelTime="-1.00" meanSpeed="4.83" meanSpeedRelative="0.35" duration="1586692191690"/>
    <step time="00:00:09.15" loaded="10" inserted="2" running="2" waiting="0" ended="0" arrived="0" collisions="0" teleports="0" halting="0" meanWaitingTime="0.00" meanTravelTime="-1.00" meanSpeed="4.82" meanSpeedRelative="0.35" duration="1586692191708"/>
    <step time="00:00:09.30" loaded="10" inserted="2" running="2" waiting="0" ended="0" arrived="0" collisions="0" teleports="0" halting="0" meanWaitingTime="0.00" meanTravelTime="-1.00" meanSpeed="4.89" meanSpeedRelative="0.35" duration="1586692191728"/>
    <step time="00:00:09.45" loaded="10" inserted="2" running="2" waiting="0" ended="0" arrived="0" collisions="0" teleports="0" halting="0" meanWaitingTime="0.00" meanTravelTime="-1.00" meanSpeed="4.89" meanSpeedRelative="0.35" duration="1586692191745"/>
    <step time="00:00:09.60" loaded="10" inserted="2" running="2" waiting="0" ended="0" arrived="0" collisions="0" teleports="0" halting="0" meanWaitingTime="0.00" meanTravelTime="-1.00" meanSpeed="4.86" meanSpeedRelative="0.35" duration="1586692191764"/>
    <step time="00:00:09.75" loaded="10" inserted="2" running="2" waiting="0" ended="0" arrived="0" collisions="0" teleports="0" halting="0" meanWaitingTime="0.00" meanTravelTime="-1.00" meanSpeed="4.97" meanSpeedRelative="0.36" duration="1586692191779"/>
    <step time="00:00:09.90" loaded="10" inserted="3" running="3" waiting="0" ended="0" arrived="0" collisions="0" teleports="0" halting="1" meanWaitingTime="0.00" meanTravelTime="-1.00" meanSpeed="3.23" meanSpeedRelative="0.23" duration="1586692191797"/>
    <step time="00:00:10.05" loaded="10" inserted="3" running="3" waiting="0" ended="0" arrived="0" collisions="0" teleports="0" halting="0" meanWaitingTime="0.00" meanTravelTime="-1.00" meanSpeed="3.39" meanSpeedRelative="0.24" duration="1586692191814"/>
    <step time="00:00:10.20" loaded="10" inserted="3" running="3" waiting="0" ended="0" arrived="0" collisions="0" teleports="0" halting="0" meanWaitingTime="0.00" meanTravelTime="-1.00" meanSpeed="3.48" meanSpeedRelative="0.25" duration="1586692191831"/>
    <step time="00:00:10.35" loaded="10" inserted="3" running="3" waiting="0" ended="0" arrived="0" collisions="0" teleports="0" halting="0" meanWaitingTime="0.00" meanTravelTime="-1.00" meanSpeed="3.61" meanSpeedRelative="0.26" duration="1586692191844"/>
    <step time="00:00:10.50" loaded="10" inserted="3" running="3" waiting="0" ended="0" arrived="0" collisions="0" teleports="0" halting="0" meanWaitingTime="0.00" meanTravelTime="-1.00" meanSpeed="3.76" meanSpeedRelative="0.27" duration="1586692191858"/>
    <step time="00:00:10.65" loaded="10" inserted="3" running="3" waiting="0" ended="0" arrived="0" collisions="0" teleports="0" halting="0" meanWaitingTime="0.00" meanTravelTime="-1.00" meanSpeed="3.88" meanSpeedRelative="0.28" duration="1586692191873"/>
    <step time="00:00:10.80" loaded="10" inserted="3" running="3" waiting="0" ended="0" arrived="0" collisions="0" teleports="0" halting="0" meanWaitingTime="0.00" meanTravelTime="-1.00" meanSpeed="3.93" meanSpeedRelative="0.28" duration="1586692191893"/>
    <step time="00:00:10.95" loaded="10" inserted="4" running="4" waiting="0" ended="0" arrived="0" collisions="0" teleports="0" halting="1" meanWaitingTime="0.00" meanTravelTime="-1.00" meanSpeed="3.00" meanSpeedRelative="0.22" duration="1586692191910"/>
    <step time="00:00:11.10" loaded="10" inserted="4" running="4" waiting="0" ended="0" arrived="0" collisions="0" teleports="0" halting="0" meanWaitingTime="0.00" meanTravelTime="-1.00" meanSpeed="3.22" meanSpeedRelative="0.23" duration="1586692191927"/>
    <step time="00:00:11.25" loaded="10" inserted="4" running="4" waiting="0" ended="0" arrived="0" collisions="0" teleports="0" halting="0" meanWaitingTime="0.00" meanTravelTime="-1.00" meanSpeed="3.33" meanSpeedRelative="0.24" duration="1586692191940"/>
    <step time="00:00:11.40" loaded="10" inserted="4" running="4" waiting="0" ended="0" arrived="0" collisions="0" teleports="0" halting="0" meanWaitingTime="0.00" meanTravelTime="-1.00" meanSpeed="3.55" meanSpeedRelative="0.26" duration="1586692191955"/>
    <step time="00:00:11.55" loaded="10" inserted="4" running="4" waiting="0" ended="0" arrived="0" collisions="0" teleports="0" halting="0" meanWaitingTime="0.00" meanTravelTime="-1.00" meanSpeed="3.65" meanSpeedRelative="0.26" duration="1586692191972"/>
    <step time="00:00:11.70" loaded="10" inserted="4" running="4" waiting="0" ended="0" arrived="0" collisions="0" teleports="0" halting="0" meanWaitingTime="0.00" meanTravelTime="-1.00" meanSpeed="3.83" meanSpeedRelative="0.28" duration="1586692191986"/>
    <step time="00:00:11.85" loaded="10" inserted="4" running="4" waiting="0" ended="0" arrived="0" collisions="0" teleports="0" halting="0" meanWaitingTime="0.00" meanTravelTime="-1.00" meanSpeed="3.95" meanSpeedRelative="0.28" duration="1586692192003"/>
    <step time="00:00:12.00" loaded="10" inserted="4" running="4" waiting="0" ended="0" arrived="0" collisions="0" teleports="0" halting="0" meanWaitingTime="0.00" meanTravelTime="-1.00" meanSpeed="4.08" meanSpeedRelative="0.29" duration="1586692192020"/>
    <step time="00:00:12.15" loaded="10" inserted="4" running="4" waiting="0" ended="0" arrived="0" collisions="0" teleports="0" halting="0" meanWaitingTime="0.00" meanTravelTime="-1.00" meanSpeed="4.24" meanSpeedRelative="0.31" duration="1586692192039"/>
    <step time="00:00:12.30" loaded="10" inserted="4" running="4" waiting="0" ended="0" arrived="0" collisions="0" teleports="0" halting="0" meanWaitingTime="0.00" meanTravelTime="-1.00" meanSpeed="4.36" meanSpeedRelative="0.31" duration="1586692192053"/>
    <step time="00:00:12.45" loaded="10" inserted="4" running="4" waiting="0" ended="0" arrived="0" collisions="0" teleports="0" halting="0" meanWaitingTime="0.00" meanTravelTime="-1.00" meanSpeed="4.50" meanSpeedRelative="0.32" duration="1586692192071"/>
    <step time="00:00:12.60" loaded="10" inserted="4" running="4" waiting="0" ended="0" arrived="0" collisions="0" teleports="0" halting="0" meanWaitingTime="0.00" meanTravelTime="-1.00" meanSpeed="4.54" meanSpeedRelative="0.33" duration="1586692192087"/>
    <step time="00:00:12.75" loaded="10" inserted="4" running="4" waiting="0" ended="0" arrived="0" collisions="0" teleports="0" halting="0" meanWaitingTime="0.00" meanTravelTime="-1.00" meanSpeed="4.64" meanSpeedRelative="0.33" duration="1586692192103"/>
    <step time="00:00:12.90" loaded="10" inserted="4" running="4" waiting="0" ended="0" arrived="0" collisions="0" teleports="0" halting="0" meanWaitingTime="0.00" meanTravelTime="-1.00" meanSpeed="4.76" meanSpeedRelative="0.34" duration="1586692192118"/>
    <step time="00:00:13.05" loaded="10" inserted="4" running="4" waiting="0" ended="0" arrived="0" collisions="0" teleports="0" halting="0" meanWaitingTime="0.00" meanTravelTime="-1.00" meanSpeed="4.88" meanSpeedRelative="0.35" duration="1586692192138"/>
    <step time="00:00:13.20" loaded="10" inserted="4" running="4" waiting="0" ended="0" arrived="0" collisions="0" teleports="0" halting="0" meanWaitingTime="0.00" meanTravelTime="-1.00" meanSpeed="4.91" meanSpeedRelative="0.35" duration="1586692192154"/>
    <step time="00:00:13.35" loaded="10" inserted="4" running="4" waiting="0" ended="0" arrived="0" collisions="0" teleports="0" halting="0" meanWaitingTime="0.00" meanTravelTime="-1.00" meanSpeed="4.92" meanSpeedRelative="0.35" duration="1586692192171"/>
    <step time="00:00:13.50" loaded="10" inserted="4" running="4" waiting="0" ended="0" arrived="0" collisions="0" teleports="0" halting="0" meanWaitingTime="0.00" meanTravelTime="-1.00" meanSpeed="4.87" meanSpeedRelative="0.35" duration="1586692192188"/>
    <step time="00:00:13.65" loaded="10" inserted="4" running="4" waiting="0" ended="0" arrived="0" collisions="0" teleports="0" halting="0" meanWaitingTime="0.00" meanTravelTime="-1.00" meanSpeed="4.89" meanSpeedRelative="0.35" duration="1586692192205"/>
    <step time="00:00:13.80" loaded="10" inserted="4" running="4" waiting="0" ended="0" arrived="0" collisions="0" teleports="0" halting="0" meanWaitingTime="0.00" meanTravelTime="-1.00" meanSpeed="4.90" meanSpeedRelative="0.35" duration="1586692192222"/>
    <step time="00:00:13.95" loaded="10" inserted="5" running="5" waiting="0" ended="0" arrived="0" collisions="0" teleports="0" halting="1" meanWaitingTime="0.00" meanTravelTime="-1.00" meanSpeed="3.94" meanSpeedRelative="0.28" duration="1586692192239"/>
    <step time="00:00:14.10" loaded="10" inserted="5" running="5" waiting="0" ended="0" arrived="0" collisions="0" teleports="0" halting="0" meanWaitingTime="0.00" meanTravelTime="-1.00" meanSpeed="4.01" meanSpeedRelative="0.29" duration="1586692192255"/>
    <step time="00:00:14.25" loaded="10" inserted="5" running="5" waiting="0" ended="0" arrived="0" collisions="0" teleports="0" halting="0" meanWaitingTime="0.00" meanTravelTime="-1.00" meanSpeed="4.08" meanSpeedRelative="0.29" duration="1586692192267"/>
    <step time="00:00:14.40" loaded="10" inserted="5" running="5" waiting="0" ended="0" arrived="0" collisions="0" teleports="0" halting="0" meanWaitingTime="0.00" meanTravelTime="-1.00" meanSpeed="4.11" meanSpeedRelative="0.30" duration="1586692192289"/>
    <step time="00:00:14.55" loaded="10" inserted="5" running="5" waiting="0" ended="0" arrived="0" collisions="0" teleports="0" halting="0" meanWaitingTime="0.00" meanTravelTime="-1.00" meanSpeed="4.22" meanSpeedRelative="0.30" duration="1586692192305"/>
    <step time="00:00:14.70" loaded="10" inserted="5" running="5" waiting="0" ended="0" arrived="0" collisions="0" teleports="0" halting="0" meanWaitingTime="0.00" meanTravelTime="-1.00" meanSpeed="4.27" meanSpeedRelative="0.31" duration="1586692192322"/>
    <step time="00:00:14.85" loaded="10" inserted="5" running="5" waiting="0" ended="0" arrived="0" collisions="0" teleports="0" halting="0" meanWaitingTime="0.00" meanTravelTime="-1.00" meanSpeed="4.34" meanSpeedRelative="0.31" duration="1586692192336"/>
    <step time="00:00:15.00" loaded="10" inserted="5" running="5" waiting="0" ended="0" arrived="0" collisions="0" teleports="0" halting="0" meanWaitingTime="0.00" meanTravelTime="-1.00" meanSpeed="4.41" meanSpeedRelative="0.32" duration="1586692192353"/>
    <step time="00:00:15.15" loaded="10" inserted="5" running="5" waiting="0" ended="0" arrived="0" collisions="0" teleports="0" halting="0" meanWaitingTime="0.00" meanTravelTime="-1.00" meanSpeed="4.51" meanSpeedRelative="0.32" duration="1586692192364"/>
    <step time="00:00:15.30" loaded="10" inserted="5" running="5" waiting="0" ended="0" arrived="0" collisions="0" teleports="0" halting="0" meanWaitingTime="0.00" meanTravelTime="-1.00" meanSpeed="4.51" meanSpeedRelative="0.32" duration="1586692192381"/>
    <step time="00:00:15.45" loaded="10" inserted="5" running="5" waiting="0" ended="0" arrived="0" collisions="0" teleports="0" halting="0" meanWaitingTime="0.00" meanTravelTime="-1.00" meanSpeed="4.61" meanSpeedRelative="0.33" duration="1586692192400"/>
    <step time="00:00:15.60" loaded="10" inserted="5" running="5" waiting="0" ended="0" arrived="0" collisions="0" teleports="0" halting="0" meanWaitingTime="0.00" meanTravelTime="-1.00" meanSpeed="4.67" meanSpeedRelative="0.34" duration="1586692192417"/>
    <step time="00:00:15.75" loaded="10" inserted="5" running="5" waiting="0" ended="0" arrived="0" collisions="0" teleports="0" halting="0" meanWaitingTime="0.00" meanTravelTime="-1.00" meanSpeed="4.71" meanSpeedRelative="0.34" duration="1586692192435"/>
    <step time="00:00:15.90" loaded="10" inserted="5" running="5" waiting="0" ended="0" arrived="0" collisions="0" teleports="0" halting="0" meanWaitingTime="0.00" meanTravelTime="-1.00" meanSpeed="4.78" meanSpeedRelative="0.34" duration="1586692192451"/>
    <step time="00:00:16.05" loaded="10" inserted="5" running="5" waiting="0" ended="0" arrived="0" collisions="0" teleports="0" halting="0" meanWaitingTime="0.00" meanTravelTime="-1.00" meanSpeed="4.82" meanSpeedRelative="0.35" duration="1586692192469"/>
    <step time="00:00:16.20" loaded="10" inserted="5" running="5" waiting="0" ended="0" arrived="0" collisions="0" teleports="0" halting="0" meanWaitingTime="0.00" meanTravelTime="-1.00" meanSpeed="4.92" meanSpeedRelative="0.35" duration="1586692192485"/>
    <step time="00:00:16.35" loaded="10" inserted="5" running="5" waiting="0" ended="0" arrived="0" collisions="0" teleports="0" halting="0" meanWaitingTime="0.00" meanTravelTime="-1.00" meanSpeed="4.91" meanSpeedRelative="0.35" duration="1586692192504"/>
    <step time="00:00:16.50" loaded="10" inserted="5" running="5" waiting="0" ended="0" arrived="0" collisions="0" teleports="0" halting="0" meanWaitingTime="0.00" meanTravelTime="-1.00" meanSpeed="4.88" meanSpeedRelative="0.35" duration="1586692192521"/>