<?xml version="1.0" encoding="UTF-8"?>

<!-- generated on Fri Feb 21 20:21:59 2020 by Eclipse SUMO GUI Version 1.2.0
<configuration xmlns:xsi="http://www.w3.org/2001/XMLSchema-instance" xsi:noNamespaceSchemaLocation="http://sumo.dlr.de/xsd/sumoConfiguration.xsd">

    <input>
        <net-file value="SUMO/singleRoad2.net.xml"/>
        <route-files value="SUMO/singleRoad.rou.xml"/>
    </input>

    <output>
        <write-license value="true"/>
        <human-readable-time value="true"/>
        <summary-output value="SUMO/results/summaryOutput25car.txt"/>
        <tripinfo-output value="SUMO/results/tripInfo25car.txt"/>
    </output>

    <time>
        <begin value="0"/>
        <step-length value="0.15"/>
    </time>

    <processing>
        <lateral-resolution value="0.8"/>
        <route-steps value="250"/>
    </processing>

    <report>
        <verbose value="true"/>
        <duration-log.statistics value="true"/>
        <no-step-log value="true"/>
    </report>

    <traci_server>
        <remote-port value="53498"/>
    </traci_server>

    <gui_only>
        <gui-settings-file value="SUMO/settings.settings.xml"/>
        <quit-on-end value="true"/>
        <start value="true"/>
        <tracker-interval value="0.15"/>
    </gui_only>

</configuration>
-->

<summary xmlns:xsi="http://www.w3.org/2001/XMLSchema-instance" xsi:noNamespaceSchemaLocation="http://sumo.dlr.de/xsd/summary_file.xsd">
    <step time="00:00:00.00" loaded="2" inserted="1" running="1" waiting="0" ended="0" arrived="0" collisions="0" teleports="0" halting="1" meanWaitingTime="0.00" meanTravelTime="-1.00" meanSpeed="0.00" meanSpeedRelative="0.00" duration="1582316519459"/>
    <step time="00:00:00.15" loaded="2" inserted="1" running="1" waiting="0" ended="0" arrived="0" collisions="0" teleports="0" halting="0" meanWaitingTime="0.00" meanTravelTime="-1.00" meanSpeed="0.37" meanSpeedRelative="0.03" duration="1582316519474"/>
    <step time="00:00:00.30" loaded="2" inserted="1" running="1" waiting="0" ended="0" arrived="0" collisions="0" teleports="0" halting="0" meanWaitingTime="0.00" meanTravelTime="-1.00" meanSpeed="0.73" meanSpeedRelative="0.05" duration="1582316519489"/>
    <step time="00:00:00.45" loaded="2" inserted="1" running="1" waiting="0" ended="0" arrived="0" collisions="0" teleports="0" halting="0" meanWaitingTime="0.00" meanTravelTime="-1.00" meanSpeed="1.09" meanSpeedRelative="0.08" duration="1582316519507"/>
    <step time="00:00:00.60" loaded="2" inserted="1" running="1" waiting="0" ended="0" arrived="0" collisions="0" teleports="0" halting="0" meanWaitingTime="0.00" meanTravelTime="-1.00" meanSpeed="1.39" meanSpeedRelative="0.10" duration="1582316519524"/>
    <step time="00:00:00.75" loaded="2" inserted="1" running="1" waiting="0" ended="0" arrived="0" collisions="0" teleports="0" halting="0" meanWaitingTime="0.00" meanTravelTime="-1.00" meanSpeed="1.68" meanSpeedRelative="0.12" duration="1582316519540"/>
    <step time="00:00:00.90" loaded="2" inserted="2" running="2" waiting="0" ended="0" arrived="0" collisions="0" teleports="0" halting="1" meanWaitingTime="0.00" meanTravelTime="-1.00" meanSpeed="1.00" meanSpeedRelative="0.07" duration="1582316519557"/>
    <step time="00:00:01.05" loaded="6" inserted="2" running="2" waiting="0" ended="0" arrived="0" collisions="0" teleports="0" halting="0" meanWaitingTime="0.00" meanTravelTime="-1.00" meanSpeed="1.32" meanSpeedRelative="0.10" duration="1582316519574"/>
    <step time="00:00:01.20" loaded="6" inserted="2" running="2" waiting="0" ended="0" arrived="0" collisions="0" teleports="0" halting="0" meanWaitingTime="0.00" meanTravelTime="-1.00" meanSpeed="1.65" meanSpeedRelative="0.12" duration="1582316519592"/>
    <step time="00:00:01.35" loaded="6" inserted="2" running="2" waiting="0" ended="0" arrived="0" collisions="0" teleports="0" halting="0" meanWaitingTime="0.00" meanTravelTime="-1.00" meanSpeed="2.01" meanSpeedRelative="0.14" duration="1582316519607"/>
    <step time="00:00:01.50" loaded="6" inserted="2" running="2" waiting="0" ended="0" arrived="0" collisions="0" teleports="0" halting="0" meanWaitingTime="0.00" meanTravelTime="-1.00" meanSpeed="2.32" meanSpeedRelative="0.17" duration="1582316519625"/>
    <step time="00:00:01.65" loaded="6" inserted="2" running="2" waiting="0" ended="0" arrived="0" collisions="0" teleports="0" halting="0" meanWaitingTime="0.00" meanTravelTime="-1.00" meanSpeed="2.62" meanSpeedRelative="0.19" duration="1582316519642"/>
    <step time="00:00:01.80" loaded="6" inserted="2" running="2" waiting="0" ended="0" arrived="0" collisions="0" teleports="0" halting="0" meanWaitingTime="0.00" meanTravelTime="-1.00" meanSpeed="2.96" meanSpeedRelative="0.21" duration="1582316519656"/>
    <step time="00:00:01.95" loaded="6" inserted="2" running="2" waiting="0" ended="0" arrived="0" collisions="0" teleports="0" halting="0" meanWaitingTime="0.00" meanTravelTime="-1.00" meanSpeed="3.19" meanSpeedRelative="0.23" duration="1582316519673"/>
    <step time="00:00:02.10" loaded="6" inserted="2" running="2" waiting="0" ended="0" arrived="0" collisions="0" teleports="0" halting="0" meanWaitingTime="0.00" meanTravelTime="-1.00" meanSpeed="3.46" meanSpeedRelative="0.25" duration="1582316519688"/>
    <step time="00:00:02.25" loaded="6" inserted="2" running="2" waiting="0" ended="0" arrived="0" collisions="0" teleports="0" halting="0" meanWaitingTime="0.00" meanTravelTime="-1.00" meanSpeed="3.74" meanSpeedRelative="0.27" duration="1582316519704"/>
    <step time="00:00:02.40" loaded="6" inserted="2" running="2" waiting="0" ended="0" arrived="0" collisions="0" teleports="0" halting="0" meanWaitingTime="0.00" meanTravelTime="-1.00" meanSpeed="3.97" meanSpeedRelative="0.29" duration="1582316519720"/>
    <step time="00:00:02.55" loaded="6" inserted="2" running="2" waiting="0" ended="0" arrived="0" collisions="0" teleports="0" halting="0" meanWaitingTime="0.00" meanTravelTime="-1.00" meanSpeed="4.27" meanSpeedRelative="0.31" duration="1582316519735"/>
    <step time="00:00:02.70" loaded="6" inserted="2" running="2" waiting="0" ended="0" arrived="0" collisions="0" teleports="0" halting="0" meanWaitingTime="0.00" meanTravelTime="-1.00" meanSpeed="4.41" meanSpeedRelative="0.32" duration="1582316519749"/>
    <step time="00:00:02.85" loaded="6" inserted="2" running="2" waiting="0" ended="0" arrived="0" collisions="0" teleports="0" halting="0" meanWaitingTime="0.00" meanTravelTime="-1.00" meanSpeed="4.53" meanSpeedRelative="0.33" duration="1582316519764"/>
    <step time="00:00:03.00" loaded="6" inserted="2" running="2" waiting="0" ended="0" arrived="0" collisions="0" teleports="0" halting="0" meanWaitingTime="0.00" meanTravelTime="-1.00" meanSpeed="4.74" meanSpeedRelative="0.34" duration="1582316519780"/>
    <step time="00:00:03.15" loaded="6" inserted="2" running="2" waiting="0" ended="0" arrived="0" collisions="0" teleports="0" halting="0" meanWaitingTime="0.00" meanTravelTime="-1.00" meanSpeed="4.85" meanSpeedRelative="0.35" duration="1582316519795"/>
    <step time="00:00:03.30" loaded="6" inserted="2" running="2" waiting="0" ended="0" arrived="0" collisions="0" teleports="0" halting="0" meanWaitingTime="0.00" meanTravelTime="-1.00" meanSpeed="4.91" meanSpeedRelative="0.35" duration="1582316519812"/>
    <step time="00:00:03.45" loaded="6" inserted="2" running="2" waiting="0" ended="0" arrived="0" collisions="0" teleports="0" halting="0" meanWaitingTime="0.00" meanTravelTime="-1.00" meanSpeed="4.90" meanSpeedRelative="0.35" duration="1582316519827"/>
    <step time="00:00:03.60" loaded="6" inserted="2" running="2" waiting="0" ended="0" arrived="0" collisions="0" teleports="0" halting="0" meanWaitingTime="0.00" meanTravelTime="-1.00" meanSpeed="4.91" meanSpeedRelative="0.35" duration="1582316519844"/>
    <step time="00:00:03.75" loaded="6" inserted="2" running="2" waiting="0" ended="0" arrived="0" collisions="0" teleports="0" halting="0" meanWaitingTime="0.00" meanTravelTime="-1.00" meanSpeed="4.90" meanSpeedRelative="0.35" duration="1582316519858"/>
    <step time="00:00:03.90" loaded="6" inserted="2" running="2" waiting="0" ended="0" arrived="0" collisions="0" teleports="0" halting="0" meanWaitingTime="0.00" meanTravelTime="-1.00" meanSpeed="4.93" meanSpeedRelative="0.36" duration="1582316519875"/>
    <step time="00:00:04.05" loaded="6" inserted="2" running="2" waiting="0" ended="0" arrived="0" collisions="0" teleports="0" halting="0" meanWaitingTime="0.00" meanTravelTime="-1.00" meanSpeed="4.95" meanSpeedRelative="0.36" duration="1582316519890"/>
    <step time="00:00:04.20" loaded="6" inserted="2" running="2" waiting="0" ended="0" arrived="0" collisions="0" teleports="0" halting="0" meanWaitingTime="0.00" meanTravelTime="-1.00" meanSpeed="4.95" meanSpeedRelative="0.36" duration="1582316519908"/>
    <step time="00:00:04.35" loaded="6" inserted="2" running="2" waiting="0" ended="0" arrived="0" collisions="0" teleports="0" halting="0" meanWaitingTime="0.00" meanTravelTime="-1.00" meanSpeed="4.94" meanSpeedRelative="0.36" duration="1582316519923"/>
    <step time="00:00:04.50" loaded="6" inserted="2" running="2" waiting="0" ended="0" arrived="0" collisions="0" teleports="0" halting="0" meanWaitingTime="0.00" meanTravelTime="-1.00" meanSpeed="4.86" meanSpeedRelative="0.35" duration="1582316519938"/>
    <step time="00:00:04.65" loaded="6" inserted="2" running="2" waiting="0" ended="0" arrived="0" collisions="0" teleports="0" halting="0" meanWaitingTime="0.00" meanTravelTime="-1.00" meanSpeed="4.88" meanSpeedRelative="0.35" duration="1582316519955"/>
    <step time="00:00:04.80" loaded="6" inserted="2" running="2" waiting="0" ended="0" arrived="0" collisions="0" teleports="0" halting="0" meanWaitingTime="0.00" meanTravelTime="-1.00" meanSpeed="4.83" meanSpeedRelative="0.35" duration="1582316519971"/>
    <step time="00:00:04.95" loaded="6" inserted="2" running="2" waiting="0" ended="0" arrived="0" collisions="0" teleports="0" halting="0" meanWaitingTime="0.00" meanTravelTime="-1.00" meanSpeed="4.90" meanSpeedRelative="0.35" duration="1582316519986"/>
    <step time="00:00:05.10" loaded="6" inserted="2" running="2" waiting="0" ended="0" arrived="0" collisions="0" teleports="0" halting="0" meanWaitingTime="0.00" meanTravelTime="-1.00" meanSpeed="4.90" meanSpeedRelative="0.35" duration="1582316520004"/>
    <step time="00:00:05.25" loaded="6" inserted="2" running="2" waiting="0" ended="0" arrived="0" collisions="0" teleports="0" halting="0" meanWaitingTime="0.00" meanTravelTime="-1.00" meanSpeed="4.94" meanSpeedRelative="0.36" duration="1582316520019"/>
    <step time="00:00:05.40" loaded="6" inserted="2" running="2" waiting="0" ended="0" arrived="0" collisions="0" teleports="0" halting="0" meanWaitingTime="0.00" meanTravelTime="-1.00" meanSpeed="4.91" meanSpeedRelative="0.35" duration="1582316520036"/>
    <step time="00:00:05.55" loaded="6" inserted="2" running="2" waiting="0" ended="0" arrived="0" collisions="0" teleports="0" halting="0" meanWaitingTime="0.00" meanTravelTime="-1.00" meanSpeed="4.99" meanSpeedRelative="0.36" duration="1582316520052"/>
    <step time="00:00:05.70" loaded="6" inserted="2" running="2" waiting="0" ended="0" arrived="0" collisions="0" teleports="0" halting="0" meanWaitingTime="0.00" meanTravelTime="-1.00" meanSpeed="4.91" meanSpeedRelative="0.35" duration="1582316520067"/>
    <step time="00:00:05.85" loaded="6" inserted="2" running="2" waiting="0" ended="0" arrived="0" collisions="0" teleports="0" halting="0" meanWaitingTime="0.00" meanTravelTime="-1.00" meanSpeed="4.89" meanSpeedRelative="0.35" duration="1582316520086"/>
    <step time="00:00:06.00" loaded="6" inserted="2" running="2" waiting="0" ended="0" arrived="0" collisions="0" teleports="0" halting="0" meanWaitingTime="0.00" meanTravelTime="-1.00" meanSpeed="4.89" meanSpeedRelative="0.35" duration="1582316520100"/>
    <step time="00:00:06.15" loaded="6" inserted="2" running="2" waiting="0" ended="0" arrived="0" collisions="0" teleports="0" halting="0" meanWaitingTime="0.00" meanTravelTime="-1.00" meanSpeed="4.87" meanSpeedRelative="0.35" duration="1582316520118"/>
    <step time="00:00:06.30" loaded="6" inserted="2" running="2" waiting="0" ended="0" arrived="0" collisions="0" teleports="0" halting="0" meanWaitingTime="0.00" meanTravelTime="-1.00" meanSpeed="4.97" meanSpeedRelative="0.36" duration="1582316520133"/>
    <step time="00:00:06.45" loaded="6" inserted="2" running="2" waiting="0" ended="0" arrived="0" collisions="0" teleports="0" halting="0" meanWaitingTime="0.00" meanTravelTime="-1.00" meanSpeed="4.90" meanSpeedRelative="0.35" duration="1582316520151"/>
    <step time="00:00:06.60" loaded="6" inserted="2" running="2" waiting="0" ended="0" arrived="0" collisions="0" teleports="0" halting="0" meanWaitingTime="0.00" meanTravelTime="-1.00" meanSpeed="4.92" meanSpeedRelative="0.35" duration="1582316520166"/>
    <step time="00:00:06.75" loaded="6" inserted="2" running="2" waiting="0" ended="0" arrived="0" collisions="0" teleports="0" halting="0" meanWaitingTime="0.00" meanTravelTime="-1.00" meanSpeed="4.96" meanSpeedRelative="0.36" duration="1582316520181"/>
    <step time="00:00:06.90" loaded="6" inserted="2" running="2" waiting="0" ended="0" arrived="0" collisions="0" teleports="0" halting="0" meanWaitingTime="0.00" meanTravelTime="-1.00" meanSpeed="4.96" meanSpeedRelative="0.36" duration="1582316520196"/>
    <step time="00:00:07.05" loaded="6" inserted="2" running="2" waiting="0" ended="0" arrived="0" collisions="0" teleports="0" halting="0" meanWaitingTime="0.00" meanTravelTime="-1.00" meanSpeed="4.92" meanSpeedRelative="0.35" duration="1582316520213"/>
    <step time="00:00:07.20" loaded="6" inserted="2" running="2" waiting="0" ended="0" arrived="0" collisions="0" teleports="0" halting="0" meanWaitingTime="0.00" meanTravelTime="-1.00" meanSpeed="4.82" meanSpeedRelative="0.35" duration="1582316520230"/>
    <step time="00:00:07.35" loaded="6" inserted="2" running="2" waiting="0" ended="0" arrived="0" collisions="0" teleports="0" halting="0" meanWaitingTime="0.00" meanTravelTime="-1.00" meanSpeed="4.90" meanSpeedRelative="0.35" duration="1582316520245"/>
    <step time="00:00:07.50" loaded="6" inserted="2" running="2" waiting="0" ended="0" arrived="0" collisions="0" teleports="0" halting="0" meanWaitingTime="0.00" meanTravelTime="-1.00" meanSpeed="4.92" meanSpeedRelative="0.35" duration="1582316520260"/>
    <step time="00:00:07.65" loaded="6" inserted="2" running="2" waiting="0" ended="0" arrived="0" collisions="0" teleports="0" halting="0" meanWaitingTime="0.00" meanTravelTime="-1.00" meanSpeed="4.92" meanSpeedRelative="0.35" duration="1582316520275"/>
    <step time="00:00:07.80" loaded="6" inserted="2" running="2" waiting="0" ended="0" arrived="0" collisions="0" teleports="0" halting="0" meanWaitingTime="0.00" meanTravelTime="-1.00" meanSpeed="4.94" meanSpeedRelative="0.36" duration="1582316520290"/>
    <step time="00:00:07.95" loaded="6" inserted="2" running="2" waiting="0" ended="0" arrived="0" collisions="0" teleports="0" halting="0" meanWaitingTime="0.00" meanTravelTime="-1.00" meanSpeed="4.89" meanSpeedRelative="0.35" duration="1582316520306"/>
    <step time="00:00:08.10" loaded="6" inserted="2" running="2" waiting="0" ended="0" arrived="0" collisions="0" teleports="0" halting="0" meanWaitingTime="0.00" meanTravelTime="-1.00" meanSpeed="4.92" meanSpeedRelative="0.35" duration="1582316520323"/>
    <step time="00:00:08.25" loaded="6" inserted="2" running="2" waiting="0" ended="0" arrived="0" collisions="0" teleports="0" halting="0" meanWaitingTime="0.00" meanTravelTime="-1.00" meanSpeed="4.92" meanSpeedRelative="0.35" duration="1582316520338"/>
    <step time="00:00:08.40" loaded="6" inserted="2" running="2" waiting="0" ended="0" arrived="0" collisions="0" teleports="0" halting="0" meanWaitingTime="0.00" meanTravelTime="-1.00" meanSpeed="4.90" meanSpeedRelative="0.35" duration="1582316520353"/>
    <step time="00:00:08.55" loaded="6" inserted="2" running="2" waiting="0" ended="0" arrived="0" collisions="0" teleports="0" halting="0" meanWaitingTime="0.00" meanTravelTime="-1.00" meanSpeed="4.84" meanSpeedRelative="0.35" duration="1582316520369"/>
    <step time="00:00:08.70" loaded="6" inserted="2" running="2" waiting="0" ended="0" arrived="0" collisions="0" teleports="0" halting="0" meanWaitingTime="0.00" meanTravelTime="-1.00" meanSpeed="4.93" meanSpeedRelative="0.36" duration="1582316520387"/>
    <step time="00:00:08.85" loaded="6" inserted="2" running="2" waiting="0" ended="0" arrived="0" collisions="0" teleports="0" halting="0" meanWaitingTime="0.00" meanTravelTime="-1.00" meanSpeed="4.92" meanSpeedRelative="0.35" duration="1582316520403"/>
    <step time="00:00:09.00" loaded="6" inserted="2" running="2" waiting="0" ended="0" arrived="0" collisions="0" teleports="0" halting="0" meanWaitingTime="0.00" meanTravelTime="-1.00" meanSpeed="4.83" meanSpeedRelative="0.35" duration="1582316520418"/>
    <step time="00:00:09.15" loaded="6" inserted="2" running="2" waiting="0" ended="0" arrived="0" collisions="0" teleports="0" halting="0" meanWaitingTime="0.00" meanTravelTime="-1.00" meanSpeed="4.82" meanSpeedRelative="0.35" duration="1582316520433"/>
    <step time="00:00:09.30" loaded="6" inserted="2" running="2" waiting="0" ended="0" arrived="0" collisions="0" teleports="0" halting="0" meanWaitingTime="0.00" meanTravelTime="-1.00" meanSpeed="4.89" meanSpeedRelative="0.35" duration="1582316520450"/>
    <step time="00:00:09.45" loaded="6" inserted="2" running="2" waiting="0" ended="0" arrived="0" collisions="0" teleports="0" halting="0" meanWaitingTime="0.00" meanTravelTime="-1.00" meanSpeed="4.89" meanSpeedRelative="0.35" duration="1582316520466"/>
    <step time="00:00:09.60" loaded="6" inserted="2" running="2" waiting="0" ended="0" arrived="0" collisions="0" teleports="0" halting="0" meanWaitingTime="0.00" meanTravelTime="-1.00" meanSpeed="4.86" meanSpeedRelative="0.35" duration="1582316520482"/>
    <step time="00:00:09.75" loaded="6" inserted="2" running="2" waiting="0" ended="0" arrived="0" collisions="0" teleports="0" halting="0" meanWaitingTime="0.00" meanTravelTime="-1.00" meanSpeed="4.97" meanSpeedRelative="0.36" duration="1582316520497"/>
    <step time="00:00:09.90" loaded="6" inserted="3" running="3" waiting="0" ended="0" arrived="0" collisions="0" teleports="0" halting="1" meanWaitingTime="0.00" meanTravelTime="-1.00" meanSpeed="3.23" meanSpeedRelative="0.23" duration="1582316520512"/>
    <step time="00:00:10.05" loaded="6" inserted="3" running="3" waiting="0" ended="0" arrived="0" collisions="0" teleports="0" halting="0" meanWaitingTime="0.00" meanTravelTime="-1.00" meanSpeed="3.39" meanSpeedRelative="0.24" duration="1582316520527"/>
    <step time="00:00:10.20" loaded="6" inserted="3" running="3" waiting="0" ended="0" arrived="0" collisions="0" teleports="0" halting="0" meanWaitingTime="0.00" meanTravelTime="-1.00" meanSpeed="3.48" meanSpeedRelative="0.25" duration="1582316520550"/>
    <step time="00:00:10.35" loaded="6" inserted="3" running="3" waiting="0" ended="0" arrived="0" collisions="0" teleports="0" halting="0" meanWaitingTime="0.00" meanTravelTime="-1.00" meanSpeed="3.61" meanSpeedRelative="0.26" duration="1582316520559"/>
    <step time="00:00:10.50" loaded="6" inserted="3" running="3" waiting="0" ended="0" arrived="0" collisions="0" teleports="0" halting="0" meanWaitingTime="0.00" meanTravelTime="-1.00" meanSpeed="3.76" meanSpeedRelative="0.27" duration="1582316520577"/>
    <step time="00:00:10.65" loaded="6" inserted="3" running="3" waiting="0" ended="0" arrived="0" collisions="0" teleports="0" halting="0" meanWaitingTime="0.00" meanTravelTime="-1.00" meanSpeed="3.88" meanSpeedRelative="0.28" duration="1582316520593"/>
    <step time="00:00:10.80" loaded="6" inserted="3" running="3" waiting="0" ended="0" arrived="0" collisions="0" teleports="0" halting="0" meanWaitingTime="0.00" meanTravelTime="-1.00" meanSpeed="3.93" meanSpeedRelative="0.28" duration="1582316520607"/>
    <step time="00:00:10.95" loaded="6" inserted="4" running="4" waiting="0" ended="0" arrived="0" collisions="0" teleports="0" halting="1" meanWaitingTime="0.00" meanTravelTime="-1.00" meanSpeed="3.00" meanSpeedRelative="0.22" duration="1582316520626"/>
    <step time="00:00:11.10" loaded="6" inserted="4" running="4" waiting="0" ended="0" arrived="0" collisions="0" teleports="0" halting="0" meanWaitingTime="0.00" meanTravelTime="-1.00" meanSpeed="3.22" meanSpeedRelative="0.23" duration="1582316520641"/>
    <step time="00:00:11.25" loaded="6" inserted="4" running="4" waiting="0" ended="0" arrived="0" collisions="0" teleports="0" halting="0" meanWaitingTime="0.00" meanTravelTime="-1.00" meanSpeed="3.33" meanSpeedRelative="0.24" duration="1582316520658"/>
    <step time="00:00:11.40" loaded="6" inserted="4" running="4" waiting="0" ended="0" arrived="0" collisions="0" teleports="0" halting="0" meanWaitingTime="0.00" meanTravelTime="-1.00" meanSpeed="3.55" meanSpeedRelative="0.26" duration="1582316520674"/>
    <step time="00:00:11.55" loaded="6" inserted="4" running="4" waiting="0" ended="0" arrived="0" collisions="0" teleports="0" halting="0" meanWaitingTime="0.00" meanTravelTime="-1.00" meanSpeed="3.65" meanSpeedRelative="0.26" duration="1582316520691"/>
    <step time="00:00:11.70" loaded="6" inserted="4" running="4" waiting="0" ended="0" arrived="0" collisions="0" teleports="0" halting="0" meanWaitingTime="0.00" meanTravelTime="-1.00" meanSpeed="3.83" meanSpeedRelative="0.28" duration="1582316520706"/>
    <step time="00:00:11.85" loaded="6" inserted="4" running="4" waiting="0" ended="0" arrived="0" collisions="0" teleports="0" halting="0" meanWaitingTime="0.00" meanTravelTime="-1.00" meanSpeed="3.95" meanSpeedRelative="0.28" duration="1582316520724"/>
    <step time="00:00:12.00" loaded="6" inserted="4" running="4" waiting="0" ended="0" arrived="0" collisions="0" teleports="0" halting="0" meanWaitingTime="0.00" meanTravelTime="-1.00" meanSpeed="4.08" meanSpeedRelative="0.29" duration="1582316520739"/>
    <step time="00:00:12.15" loaded="6" inserted="4" running="4" waiting="0" ended="0" arrived="0" collisions="0" teleports="0" halting="0" meanWaitingTime="0.00" meanTravelTime="-1.00" meanSpeed="4.24" meanSpeedRelative="0.31" duration="1582316520757"/>
    <step time="00:00:12.30" loaded="6" inserted="4" running="4" waiting="0" ended="0" arrived="0" collisions="0" teleports="0" halting="0" meanWaitingTime="0.00" meanTravelTime="-1.00" meanSpeed="4.36" meanSpeedRelative="0.31" duration="1582316520772"/>
    <step time="00:00:12.45" loaded="6" inserted="4" running="4" waiting="0" ended="0" arrived="0" collisions="0" teleports="0" halting="0" meanWaitingTime="0.00" meanTravelTime="-1.00" meanSpeed="4.50" meanSpeedRelative="0.32" duration="1582316520786"/>
    <step time="00:00:12.60" loaded="6" inserted="4" running="4" waiting="0" ended="0" arrived="0" collisions="0" teleports="0" halting="0" meanWaitingTime="0.00" meanTravelTime="-1.00" meanSpeed="4.54" meanSpeedRelative="0.33" duration="1582316520806"/>
    <step time="00:00:12.75" loaded="6" inserted="4" running="4" waiting="0" ended="0" arrived="0" collisions="0" teleports="0" halting="0" meanWaitingTime="0.00" meanTravelTime="-1.00" meanSpeed="4.64" meanSpeedRelative="0.33" duration="1582316520820"/>
    <step time="00:00:12.90" loaded="6" inserted="4" running="4" waiting="0" ended="0" arrived="0" collisions="0" teleports="0" halting="0" meanWaitingTime="0.00" meanTravelTime="-1.00" meanSpeed="4.76" meanSpeedRelative="0.34" duration="1582316520836"/>
    <step time="00:00:13.05" loaded="6" inserted="4" running="4" waiting="0" ended="0" arrived="0" collisions="0" teleports="0" halting="0" meanWaitingTime="0.00" meanTravelTime="-1.00" meanSpeed="4.88" meanSpeedRelative="0.35" duration="1582316520852"/>
    <step time="00:00:13.20" loaded="6" inserted="4" running="4" waiting="0" ended="0" arrived="0" collisions="0" teleports="0" halting="0" meanWaitingTime="0.00" meanTravelTime="-1.00" meanSpeed="4.91" meanSpeedRelative="0.35" duration="1582316520869"/>
    <step time="00:00:13.35" loaded="6" inserted="4" running="4" waiting="0" ended="0" arrived="0" collisions="0" teleports="0" halting="0" meanWaitingTime="0.00" meanTravelTime="-1.00" meanSpeed="4.92" meanSpeedRelative="0.35" duration="1582316520886"/>
    <step time="00:00:13.50" loaded="6" inserted="4" running="4" waiting="0" ended="0" arrived="0" collisions="0" teleports="0" halting="0" meanWaitingTime="0.00" meanTravelTime="-1.00" meanSpeed="4.87" meanSpeedRelative="0.35" duration="1582316520901"/>
    <step time="00:00:13.65" loaded="6" inserted="4" running="4" waiting="0" ended="0" arrived="0" collisions="0" teleports="0" halting="0" meanWaitingTime="0.00" meanTravelTime="-1.00" meanSpeed="4.89" meanSpeedRelative="0.35" duration="1582316520917"/>
    <step time="00:00:13.80" loaded="6" inserted="4" running="4" waiting="0" ended="0" arrived="0" collisions="0" teleports="0" halting="0" meanWaitingTime="0.00" meanTravelTime="-1.00" meanSpeed="4.90" meanSpeedRelative="0.35" duration="1582316520932"/>
    <step time="00:00:13.95" loaded="6" inserted="4" running="4" waiting="0" ended="0" arrived="0" collisions="0" teleports="0" halting="0" meanWaitingTime="0.00" meanTravelTime="-1.00" meanSpeed="4.92" meanSpeedRelative="0.35" duration="1582316520948"/>
    <step time="00:00:14.10" loaded="6" inserted="4" running="4" waiting="0" ended="0" arrived="0" collisions="0" teleports="0" halting="0" meanWaitingTime="0.00" meanTravelTime="-1.00" meanSpeed="4.92" meanSpeedRelative="0.35" duration="1582316520962"/>
    <step time="00:00:14.25" loaded="6" inserted="4" running="4" waiting="0" ended="0" arrived="0" collisions="0" teleports="0" halting="0" meanWaitingTime="0.00" meanTravelTime="-1.00" meanSpeed="4.93" meanSpeedRelative="0.36" duration="1582316520980"/>
    <step time="00:00:14.40" loaded="6" inserted="4" running="4" waiting="0" ended="0" arrived="0" collisions="0" teleports="0" halting="0" meanWaitingTime="0.00" meanTravelTime="-1.00" meanSpeed="4.88" meanSpeedRelative="0.35" duration="1582316520996"/>
    <step time="00:00:14.55" loaded="6" inserted="4" running="4" waiting="0" ended="0" arrived="0" collisions="0" teleports="0" halting="0" meanWaitingTime="0.00" meanTravelTime="-1.00" meanSpeed="4.89" meanSpeedRelative="0.35" duration="1582316521010"/>
    <step time="00:00:14.70" loaded="6" inserted="4" running="4" waiting="0" ended="0" arrived="0" collisions="0" teleports="0" halting="0" meanWaitingTime="0.00" meanTravelTime="-1.00" meanSpeed="4.92" meanSpeedRelative="0.35" duration="1582316521026"/>
    <step time="00:00:14.85" loaded="6" inserted="4" running="4" waiting="0" ended="0" arrived="0" collisions="0" teleports="0" halting="0" meanWaitingTime="0.00" meanTravelTime="-1.00" meanSpeed="4.89" meanSpeedRelative="0.35" duration="1582316521041"/>
    <step time="00:00:15.00" loaded="6" inserted="4" running="4" waiting="0" ended="0" arrived="0" collisions="0" teleports="0" halting="0" meanWaitingTime="0.00" meanTravelTime="-1.00" meanSpeed="4.89" meanSpeedRelative="0.35" duration="1582316521056"/>
    <step time="00:00:15.15" loaded="6" inserted="4" running="4" waiting="0" ended="0" arrived="0" collisions="0" teleports="0" halting="0" meanWaitingTime="0.00" meanTravelTime="-1.00" meanSpeed="4.97" meanSpeedRelative="0.36" duration="1582316521072"/>
    <step time="00:00:15.30" loaded="6" inserted="4" running="4" waiting="0" ended="0" arrived="0" collisions="0" teleports="0" halting="0" meanWaitingTime="0.00" meanTravelTime="-1.00" meanSpeed="4.85" meanSpeedRelative="0.35" duration="1582316521088"/>
    <step time="00:00:15.45" loaded="6" inserted="4" running="4" waiting="0" ended="0" arrived="0" collisions="0" teleports="0" halting="0" meanWaitingTime="0.00" meanTravelTime="-1.00" meanSpeed="4.93" meanSpeedRelative="0.35" duration="1582316521102"/>
    <step time="00:00:15.60" loaded="6" inserted="4" running="4" waiting="0" ended="0" arrived="0" collisions="0" teleports="0" halting="0" meanWaitingTime="0.00" meanTravelTime="-1.00" meanSpeed="4.90" meanSpeedRelative="0.35" duration="1582316521119"/>
    <step time="00:00:15.75" loaded="6" inserted="4" running="4" waiting="0" ended="0" arrived="0" collisions="0" teleports="0" halting="0" meanWaitingTime="0.00" meanTravelTime="-1.00" meanSpeed="4.94" meanSpeedRelative="0.36" duration="1582316521135"/>
    <step time="00:00:15.90" loaded="6" inserted="4" running="4" waiting="0" ended="0" arrived="0" collisions="0" teleports="0" halting="0" meanWaitingTime="0.00" meanTravelTime="-1.00" meanSpeed="4.94" meanSpeedRelative="0.36" duration="1582316521154"/>
    <step time="00:00:16.05" loaded="6" inserted="4" running="4" waiting="0" ended="0" arrived="0" collisions="0" teleports="0" halting="0" meanWaitingTime="0.00" meanTravelTime="-1.00" meanSpeed="4.90" meanSpeedRelative="0.35" duration="1582316521170"/>
    <step time="00:00:16.20" loaded="6" inserted="4" running="4" waiting="0" ended="0" arrived="0" collisions="0" teleports="0" halting="0" meanWaitingTime="0.00" meanTravelTime="-1.00" meanSpeed="4.93" meanSpeedRelative="0.36" duration="1582316521185"/>
    <step time="00:00:16.35" loaded="6" inserted="4" running="4" waiting="0" ended="0" arrived="0" collisions="0" teleports="0" halting="0" meanWaitingTime="0.00" meanTravelTime="-1.00" meanSpeed="4.93" meanSpeedRelative="0.35" duration="1582316521203"/>
    <step time="00:00:16.50" loaded="6" inserted="4" running="4" waiting="0" ended="0" arrived="0" collisions="0" teleports="0" halting="0" meanWaitingTime="0.00" meanTravelTime="-1.00" meanSpeed="4.91" meanSpeedRelative="0.35" duration="1582316521216"/>
    <step time="00:00:16.65" loaded="6" inserted="4" running="4" waiting="0" ended="0" arrived="0" collisions="0" teleports="0" halting="0" meanWaitingTime="0.00" meanTravelTime="-1.00" meanSpeed="4.87" meanSpeedRelative="0.35" duration="1582316521235"/>