<?xml version="1.0" encoding="UTF-8"?>

<!-- generated on Tue 28 Jan 12:23:16 2020 by Eclipse SUMO GUI Version 1.2.0
<configuration xmlns:xsi="http://www.w3.org/2001/XMLSchema-instance" xsi:noNamespaceSchemaLocation="http://sumo.dlr.de/xsd/sumoConfiguration.xsd">

    <input>
        <net-file value="/Users/jamie/Documents/University/Third%20Year/Project/GitHub/Sandbox/Grid%20Network/myGridNetwork/net.net.xml"/>
        <route-files value="/Users/jamie/Documents/University/Third%20Year/Project/GitHub/Sandbox/Grid%20Network/myGridNetwork/routes.rou.xml"/>
    </input>

    <output>
        <write-license value="true"/>
        <human-readable-time value="true"/>
        <summary-output value="/Users/jamie/Documents/University/Third%20Year/Project/GitHub/Sandbox/Grid%20Network/myGridNetwork/results/summaryOutput.txt"/>
        <tripinfo-output value="/Users/jamie/Documents/University/Third%20Year/Project/GitHub/Sandbox/Grid%20Network/myGridNetwork/results/tripInfo.txt"/>
    </output>

    <time>
        <begin value="0"/>
        <step-length value="0.05"/>
    </time>

    <processing>
        <route-steps value="250"/>
    </processing>

    <report>
        <verbose value="true"/>
        <duration-log.statistics value="true"/>
        <no-step-log value="true"/>
    </report>

    <gui_only>
        <gui-settings-file value="/Users/jamie/Documents/University/Third%20Year/Project/GitHub/Sandbox/Grid%20Network/myGridNetwork/settings.settings.xml"/>
        <start value="false"/>
        <tracker-interval value="0.05"/>
    </gui_only>

</configuration>
-->

<tripinfos xmlns:xsi="http://www.w3.org/2001/XMLSchema-instance" xsi:noNamespaceSchemaLocation="http://sumo.dlr.de/xsd/tripinfo_file.xsd">
    <tripinfo id="1" depart="00:00:01.00" departLane="E2D2_0" departPos="5.10" departSpeed="0.00" departDelay="00:00:00.00" arrival="00:00:20.95" arrivalLane="D2E2_0" arrivalPos="85.60" arrivalSpeed="13.03" duration="00:00:19.95" routeLength="170.77" waitingTime="00:00:00.00" waitingCount="0" stopTime="00:00:00.00" timeLoss="00:00:05.79" rerouteNo="0" devices="tripinfo_1" vType="DEFAULT_VEHTYPE" speedFactor="0.94" vaporized=""/>
    <tripinfo id="7" depart="00:00:07.00" departLane="C2D2_0" departPos="5.10" departSpeed="0.00" departDelay="00:00:00.00" arrival="00:00:34.70" arrivalLane="D1D0_0" arrivalPos="85.60" arrivalSpeed="12.30" duration="00:00:27.70" routeLength="275.13" waitingTime="00:00:00.00" waitingCount="0" stopTime="00:00:00.00" timeLoss="00:00:04.49" rerouteNo="0" devices="tripinfo_7" vType="DEFAULT_VEHTYPE" speedFactor="0.89" vaporized=""/>
    <tripinfo id="11" depart="00:00:11.00" departLane="A2A3_0" departPos="5.10" departSpeed="0.00" departDelay="00:00:00.00" arrival="00:00:37.10" arrivalLane="A4B4_0" arrivalPos="89.60" arrivalSpeed="14.20" duration="00:00:26.10" routeLength="276.68" waitingTime="00:00:00.00" waitingCount="0" stopTime="00:00:00.00" timeLoss="00:00:06.25" rerouteNo="0" devices="tripinfo_11" vType="DEFAULT_VEHTYPE" speedFactor="1.03" vaporized=""/>
    <tripinfo id="3" depart="00:00:03.00" departLane="C3C2_0" departPos="5.10" departSpeed="0.00" departDelay="00:00:00.00" arrival="00:00:38.15" arrivalLane="B3A3_0" arrivalPos="85.60" arrivalSpeed="14.98" duration="00:00:35.15" routeLength="369.55" waitingTime="00:00:00.00" waitingCount="0" stopTime="00:00:00.00" timeLoss="00:00:08.48" rerouteNo="0" devices="tripinfo_3" vType="DEFAULT_VEHTYPE" speedFactor="1.08" vaporized=""/>
    <tripinfo id="12" depart="00:00:12.00" departLane="B3B4_0" departPos="5.10" departSpeed="0.00" departDelay="00:00:00.00" arrival="00:00:38.90" arrivalLane="C4C3_0" arrivalPos="85.60" arrivalSpeed="14.53" duration="00:00:26.90" routeLength="269.76" waitingTime="00:00:00.00" waitingCount="0" stopTime="00:00:00.00" timeLoss="00:00:06.92" rerouteNo="0" devices="tripinfo_12" vType="DEFAULT_VEHTYPE" speedFactor="1.05" vaporized=""/>
    <tripinfo id="5" depart="00:00:05.00" departLane="B2C2_0" departPos="5.10" departSpeed="0.00" departDelay="00:00:00.00" arrival="00:00:43.40" arrivalLane="D1D0_0" arrivalPos="85.60" arrivalSpeed="11.51" duration="00:00:38.40" routeLength="375.13" waitingTime="00:00:00.00" waitingCount="0" stopTime="00:00:00.00" timeLoss="00:00:05.03" rerouteNo="0" devices="tripinfo_5" vType="DEFAULT_VEHTYPE" speedFactor="0.83" vaporized=""/>
    <tripinfo id="8" depart="00:00:08.00" departLane="B4B3_0" departPos="5.10" departSpeed="0.00" departDelay="00:00:00.00" arrival="00:00:44.25" arrivalLane="A2A1_0" arrivalPos="85.60" arrivalSpeed="12.99" duration="00:00:36.25" routeLength="374.92" waitingTime="00:00:00.00" waitingCount="0" stopTime="00:00:00.00" timeLoss="00:00:05.90" rerouteNo="0" devices="tripinfo_8" vType="DEFAULT_VEHTYPE" speedFactor="0.94" vaporized=""/>
    <tripinfo id="24" depart="00:00:24.00" departLane="D1E1_0" departPos="5.10" departSpeed="0.00" departDelay="00:00:00.00" arrival="00:00:44.70" arrivalLane="E1E0_0" arrivalPos="89.60" arrivalSpeed="11.42" duration="00:00:20.70" routeLength="179.13" waitingTime="00:00:00.00" waitingCount="0" stopTime="00:00:00.00" timeLoss="00:00:04.19" rerouteNo="0" devices="tripinfo_24" vType="DEFAULT_VEHTYPE" speedFactor="0.83" vaporized=""/>
    <tripinfo id="4" depart="00:00:04.00" departLane="C4B4_0" departPos="5.10" departSpeed="0.00" departDelay="00:00:00.00" arrival="00:00:44.85" arrivalLane="B1A1_0" arrivalPos="85.60" arrivalSpeed="14.28" duration="00:00:40.85" routeLength="474.92" waitingTime="00:00:00.00" waitingCount="0" stopTime="00:00:00.00" timeLoss="00:00:06.20" rerouteNo="0" devices="tripinfo_4" vType="DEFAULT_VEHTYPE" speedFactor="1.03" vaporized=""/>
    <tripinfo id="6" depart="00:00:06.00" departLane="C4D4_0" departPos="5.10" departSpeed="0.00" departDelay="00:00:00.00" arrival="00:00:51.20" arrivalLane="B3B4_0" arrivalPos="85.60" arrivalSpeed="14.52" duration="00:00:45.20" routeLength="464.39" waitingTime="00:00:00.00" waitingCount="0" stopTime="00:00:00.00" timeLoss="00:00:11.11" rerouteNo="0" devices="tripinfo_6" vType="DEFAULT_VEHTYPE" speedFactor="1.05" vaporized=""/>
    <tripinfo id="22" depart="00:00:22.00" departLane="C2D2_0" departPos="5.10" departSpeed="0.00" departDelay="00:00:00.00" arrival="00:00:51.30" arrivalLane="C2C3_0" arrivalPos="85.60" arrivalSpeed="13.52" duration="00:00:29.30" routeLength="265.40" waitingTime="00:00:00.00" waitingCount="0" stopTime="00:00:00.00" timeLoss="00:00:07.92" rerouteNo="0" devices="tripinfo_22" vType="DEFAULT_VEHTYPE" speedFactor="0.98" vaporized=""/>
    <tripinfo id="0" depart="00:00:00.00" departLane="B1B2_0" departPos="5.10" departSpeed="0.00" departDelay="00:00:00.00" arrival="00:00:55.00" arrivalLane="D0D1_0" arrivalPos="85.60" arrivalSpeed="14.72" duration="00:00:55.00" routeLength="560.03" waitingTime="00:00:00.00" waitingCount="0" stopTime="00:00:00.00" timeLoss="00:00:14.67" rerouteNo="0" devices="tripinfo_0" vType="DEFAULT_VEHTYPE" speedFactor="1.06" vaporized=""/>
    <tripinfo id="10" depart="00:00:10.00" departLane="A0B0_0" departPos="5.10" departSpeed="0.00" departDelay="00:00:00.00" arrival="00:00:56.70" arrivalLane="B4C4_0" arrivalPos="85.60" arrivalSpeed="15.12" duration="00:00:46.70" routeLength="578.92" waitingTime="00:00:00.00" waitingCount="0" stopTime="00:00:00.00" timeLoss="00:00:07.12" rerouteNo="0" devices="tripinfo_10" vType="DEFAULT_VEHTYPE" speedFactor="1.09" vaporized=""/>
    <tripinfo id="9" depart="00:00:09.00" departLane="A3A4_0" departPos="5.10" departSpeed="0.00" departDelay="00:00:00.00" arrival="00:00:58.25" arrivalLane="B2A2_0" arrivalPos="85.60" arrivalSpeed="11.89" duration="00:00:49.25" routeLength="465.94" waitingTime="00:00:00.00" waitingCount="0" stopTime="00:00:00.00" timeLoss="00:00:07.81" rerouteNo="0" devices="tripinfo_9" vType="DEFAULT_VEHTYPE" speedFactor="0.86" vaporized=""/>
    <tripinfo id="2" depart="00:00:02.00" departLane="B0A0_0" departPos="5.10" departSpeed="0.00" departDelay="00:00:00.00" arrival="00:01:02.20" arrivalLane="C3C2_0" arrivalPos="85.60" arrivalSpeed="13.99" duration="00:01:00.20" routeLength="665.94" waitingTime="00:00:00.00" waitingCount="0" stopTime="00:00:00.00" timeLoss="00:00:10.79" rerouteNo="0" devices="tripinfo_2" vType="DEFAULT_VEHTYPE" speedFactor="1.01" vaporized=""/>
    <tripinfo id="23" depart="00:00:23.00" departLane="C2C1_0" departPos="5.10" departSpeed="0.00" departDelay="00:00:00.00" arrival="00:01:02.50" arrivalLane="A1B1_0" arrivalPos="85.60" arrivalSpeed="12.34" duration="00:00:39.50" routeLength="365.40" waitingTime="00:00:00.00" waitingCount="0" stopTime="00:00:00.00" timeLoss="00:00:08.09" rerouteNo="0" devices="tripinfo_23" vType="DEFAULT_VEHTYPE" speedFactor="0.89" vaporized=""/>
    <tripinfo id="20" depart="00:00:20.00" departLane="C1C2_0" departPos="5.10" departSpeed="0.00" departDelay="00:00:00.00" arrival="00:01:03.55" arrivalLane="A3A4_0" arrivalPos="89.60" arrivalSpeed="14.11" duration="00:00:43.55" routeLength="478.92" waitingTime="00:00:00.00" waitingCount="0" stopTime="00:00:00.00" timeLoss="00:00:08.20" rerouteNo="0" devices="tripinfo_20" vType="DEFAULT_VEHTYPE" speedFactor="1.02" vaporized=""/>
    <tripinfo id="16" depart="00:00:16.00" departLane="C4B4_0" departPos="5.10" departSpeed="0.00" departDelay="00:00:00.00" arrival="00:01:04.55" arrivalLane="C2D2_0" arrivalPos="85.60" arrivalSpeed="12.15" duration="00:00:48.55" routeLength="465.20" waitingTime="00:00:00.00" waitingCount="0" stopTime="00:00:00.00" timeLoss="00:00:07.60" rerouteNo="0" devices="tripinfo_16" vType="DEFAULT_VEHTYPE" speedFactor="0.88" vaporized=""/>
    <tripinfo id="19" depart="00:00:19.00" departLane="C4B4_0" departPos="5.10" departSpeed="0.00" departDelay="00:00:00.00" arrival="00:01:06.00" arrivalLane="C2D2_0" arrivalPos="85.60" arrivalSpeed="15.34" duration="00:00:47.00" routeLength="465.20" waitingTime="00:00:00.00" waitingCount="0" stopTime="00:00:00.00" timeLoss="00:00:15.98" rerouteNo="0" devices="tripinfo_19" vType="DEFAULT_VEHTYPE" speedFactor="1.16" vaporized=""/>
    <tripinfo id="18" depart="00:00:20.40" departLane="D2D1_0" departPos="5.10" departSpeed="0.00" departDelay="00:00:02.40" arrival="00:01:07.30" arrivalLane="E3E2_0" arrivalPos="85.60" arrivalSpeed="12.97" duration="00:00:46.90" routeLength="460.04" waitingTime="00:00:00.00" waitingCount="0" stopTime="00:00:00.00" timeLoss="00:00:08.95" rerouteNo="0" devices="tripinfo_18" vType="DEFAULT_VEHTYPE" speedFactor="0.94" vaporized=""/>
    <tripinfo id="14" depart="00:00:14.00" departLane="B0B1_0" departPos="5.10" departSpeed="0.00" departDelay="00:00:00.00" arrival="00:01:09.10" arrivalLane="E0D0_0" arrivalPos="89.60" arrivalSpeed="13.72" duration="00:00:55.10" routeLength="565.94" waitingTime="00:00:00.00" waitingCount="0" stopTime="00:00:00.00" timeLoss="00:00:12.03" rerouteNo="0" devices="tripinfo_14" vType="DEFAULT_VEHTYPE" speedFactor="0.99" vaporized=""/>
    <tripinfo id="15" depart="00:00:15.00" departLane="B4A4_0" departPos="5.10" departSpeed="0.00" departDelay="00:00:00.00" arrival="00:01:10.65" arrivalLane="C2C3_0" arrivalPos="85.60" arrivalSpeed="12.87" duration="00:00:55.65" routeLength="581.42" waitingTime="00:00:00.00" waitingCount="0" stopTime="00:00:00.00" timeLoss="00:00:08.09" rerouteNo="0" devices="tripinfo_15" vType="DEFAULT_VEHTYPE" speedFactor="0.93" vaporized=""/>
    <tripinfo id="13" depart="00:00:13.00" departLane="A4A3_0" departPos="5.10" departSpeed="0.00" departDelay="00:00:00.00" arrival="00:01:17.55" arrivalLane="E1E0_0" arrivalPos="89.60" arrivalSpeed="15.55" duration="00:01:04.55" routeLength="782.92" waitingTime="00:00:00.00" waitingCount="0" stopTime="00:00:00.00" timeLoss="00:00:13.04" rerouteNo="0" devices="tripinfo_13" vType="DEFAULT_VEHTYPE" speedFactor="1.12" vaporized=""/>
    <tripinfo id="21" depart="00:00:21.00" departLane="D3D4_0" departPos="5.10" departSpeed="0.00" departDelay="00:00:00.00" arrival="00:01:21.65" arrivalLane="B1B0_0" arrivalPos="85.60" arrivalSpeed="14.00" duration="00:01:00.65" routeLength="665.19" waitingTime="00:00:00.00" waitingCount="0" stopTime="00:00:00.00" timeLoss="00:00:10.79" rerouteNo="0" devices="tripinfo_21" vType="DEFAULT_VEHTYPE" speedFactor="1.01" vaporized=""/>
    <tripinfo id="17" depart="00:00:17.00" departLane="D0E0_0" departPos="5.10" departSpeed="0.00" departDelay="00:00:00.00" arrival="00:01:23.05" arrivalLane="A1B1_0" arrivalPos="85.60" arrivalSpeed="13.02" duration="00:01:06.05" routeLength="671.90" waitingTime="00:00:00.00" waitingCount="0" stopTime="00:00:00.00" timeLoss="00:00:12.10" rerouteNo="0" devices="tripinfo_17" vType="DEFAULT_VEHTYPE" speedFactor="0.94" vaporized=""/>
</tripinfos>
