<?xml version="1.0" encoding="UTF-8"?>

<!-- generated on Fri Feb 21 20:19:56 2020 by Eclipse SUMO GUI Version 1.2.0
<configuration xmlns:xsi="http://www.w3.org/2001/XMLSchema-instance" xsi:noNamespaceSchemaLocation="http://sumo.dlr.de/xsd/sumoConfiguration.xsd">

    <input>
        <net-file value="SUMO/junctionProximityTest.net.xml"/>
        <route-files value="SUMO/junctionProximityTestRoutes.rou.xml"/>
    </input>

    <output>
        <write-license value="true"/>
        <human-readable-time value="true"/>
        <summary-output value="SUMO/results/summaryOutput25car.txt"/>
        <tripinfo-output value="SUMO/results/tripInfo25car.txt"/>
    </output>

    <time>
        <begin value="0"/>
        <step-length value="0.05"/>
    </time>

    <processing>
        <route-steps value="250"/>
    </processing>

    <report>
        <verbose value="true"/>
        <duration-log.statistics value="true"/>
        <no-step-log value="true"/>
    </report>

    <traci_server>
        <remote-port value="53426"/>
    </traci_server>

    <gui_only>
        <gui-settings-file value="SUMO/settings.settings.xml"/>
        <quit-on-end value="false"/>
        <start value="false"/>
        <tracker-interval value="0.05"/>
    </gui_only>

</configuration>
-->

<summary xmlns:xsi="http://www.w3.org/2001/XMLSchema-instance" xsi:noNamespaceSchemaLocation="http://sumo.dlr.de/xsd/summary_file.xsd">
    <step time="00:00:00.00" loaded="6" inserted="2" running="2" waiting="3" ended="0" arrived="0" collisions="0" teleports="0" halting="2" meanWaitingTime="0.00" meanTravelTime="-1.00" meanSpeed="0.00" meanSpeedRelative="0.00" duration="1582316354566"/>
</summary>
ime="00:00:00.05" loaded="6" inserted="2" running="2" waiting="3" ended="0" arrived="0" collisions="0" teleports="0" halting="2" meanWaitingTime="0.00" meanTravelTime="-1.00" meanSpeed="0.04" meanSpeedRelative="0.00" duration="1582316397877"/>
    <step time="00:00:00.10" loaded="6" inserted="2" running="2" waiting="3" ended="0" arrived="0" collisions="0" teleports="0" halting="2" meanWaitingTime="0.00" meanTravelTime="-1.00" meanSpeed="0.08" meanSpeedRelative="0.01" duration="1582316397894"/>
    <step time="00:00:00.15" loaded="6" inserted="2" running="2" waiting="3" ended="0" arrived="0" collisions="0" teleports="0" halting="0" meanWaitingTime="0.00" meanTravelTime="-1.00" meanSpeed="0.12" meanSpeedRelative="0.01" duration="1582316397910"/>
    <step time="00:00:00.20" loaded="6" inserted="2" running="2" waiting="3" ended="0" arrived="0" collisions="0" teleports="0" halting="0" meanWaitingTime="0.00" meanTravelTime="-1.00" meanSpeed="0.16" meanSpeedRelative="0.01" duration="1582316397928"/>
    <step time="00:00:00.25" loaded="6" inserted="2" running="2" waiting="3" ended="0" arrived="0" collisions="0" teleports="0" halting="0" meanWaitingTime="0.00" meanTravelTime="-1.00" meanSpeed="0.19" meanSpeedRelative="0.01" duration="1582316397944"/>
    <step time="00:00:00.30" loaded="6" inserted="2" running="2" waiting="3" ended="0" arrived="0" collisions="0" teleports="0" halting="0" meanWaitingTime="0.00" meanTravelTime="-1.00" meanSpeed="0.23" meanSpeedRelative="0.02" duration="1582316397961"/>
    <step time="00:00:00.35" loaded="6" inserted="2" running="2" waiting="3" ended="0" arrived="0" collisions="0" teleports="0" halting="0" meanWaitingTime="0.00" meanTravelTime="-1.00" meanSpeed="0.27" meanSpeedRelative="0.02" duration="1582316397975"/>
    <step time="00:00:00.40" loaded="6" inserted="2" running="2" waiting="3" ended="0" arrived="0" collisions="0" teleports="0" halting="0" meanWaitingTime="0.00" meanTravelTime="-1.00" meanSpeed="0.31" meanSpeedRelative="0.02" duration="1582316397990"/>
    <step time="00:00:00.45" loaded="6" inserted="2" running="2" waiting="3" ended="0" arrived="0" collisions="0" teleports="0" halting="0" meanWaitingTime="0.00" meanTravelTime="-1.00" meanSpeed="0.34" meanSpeedRelative="0.02" duration="1582316398023"/>
    <step time="00:00:00.50" loaded="6" inserted="2" running="2" waiting="3" ended="0" arrived="0" collisions="0" teleports="0" halting="0" meanWaitingTime="0.00" meanTravelTime="-1.00" meanSpeed="0.38" meanSpeedRelative="0.03" duration="1582316398044"/>
    <step time="00:00:00.55" loaded="6" inserted="2" running="2" waiting="3" ended="0" arrived="0" collisions="0" teleports="0" halting="0" meanWaitingTime="0.00" meanTravelTime="-1.00" meanSpeed="0.42" meanSpeedRelative="0.03" duration="1582316398066"/>
    <step time="00:00:00.60" loaded="6" inserted="2" running="2" waiting="3" ended="0" arrived="0" collisions="0" teleports="0" halting="0" meanWaitingTime="0.00" meanTravelTime="-1.00" meanSpeed="0.45" meanSpeedRelative="0.03" duration="1582316398089"/>
    <step time="00:00:00.65" loaded="6" inserted="2" running="2" waiting="3" ended="0" arrived="0" collisions="0" teleports="0" halting="0" meanWaitingTime="0.00" meanTravelTime="-1.00" meanSpeed="0.49" meanSpeedRelative="0.04" duration="1582316398110"/>
    <step time="00:00:00.70" loaded="6" inserted="2" running="2" waiting="3" ended="0" arrived="0" collisions="0" teleports="0" halting="0" meanWaitingTime="0.00" meanTravelTime="-1.00" meanSpeed="0.52" meanSpeedRelative="0.04" duration="1582316398131"/>
    <step time="00:00:00.75" loaded="6" inserted="2" running="2" waiting="3" ended="0" arrived="0" collisions="0" teleports="0" halting="0" meanWaitingTime="0.00" meanTravelTime="-1.00" meanSpeed="0.55" meanSpeedRelative="0.04" duration="1582316398156"/>
    <step time="00:00:00.80" loaded="6" inserted="2" running="2" waiting="3" ended="0" arrived="0" collisions="0" teleports="0" halting="0" meanWaitingTime="0.00" meanTravelTime="-1.00" meanSpeed="0.58" meanSpeedRelative="0.04" duration="1582316398177"/>
    <step time="00:00:00.85" loaded="6" inserted="2" running="2" waiting="3" ended="0" arrived="0" collisions="0" teleports="0" halting="0" meanWaitingTime="0.00" meanTravelTime="-1.00" meanSpeed="0.61" meanSpeedRelative="0.04" duration="1582316398198"/>
    <step time="00:00:00.90" loaded="6" inserted="2" running="2" waiting="3" ended="0" arrived="0" collisions="0" teleports="0" halting="0" meanWaitingTime="0.00" meanTravelTime="-1.00" meanSpeed="0.64" meanSpeedRelative="0.05" duration="1582316398223"/>
    <step time="00:00:00.95" loaded="6" inserted="2" running="2" waiting="3" ended="0" arrived="0" collisions="0" teleports="0" halting="0" meanWaitingTime="0.00" meanTravelTime="-1.00" meanSpeed="0.67" meanSpeedRelative="0.05" duration="1582316398244"/>
    <step time="00:00:01.00" loaded="6" inserted="2" running="2" waiting="3" ended="0" arrived="0" collisions="0" teleports="0" halting="0" meanWaitingTime="0.00" meanTravelTime="-1.00" meanSpeed="0.70" meanSpeedRelative="0.05" duration="1582316398266"/>
    <step time="00:00:01.05" loaded="6" inserted="2" running="2" waiting="3" ended="0" arrived="0" collisions="0" teleports="0" halting="0" meanWaitingTime="0.00" meanTravelTime="-1.00" meanSpeed="0.73" meanSpeedRelative="0.05" duration="1582316398291"/>
    <step time="00:00:01.10" loaded="6" inserted="2" running="2" waiting="3" ended="0" arrived="0" collisions="0" teleports="0" halting="0" meanWaitingTime="0.00" meanTravelTime="-1.00" meanSpeed="0.77" meanSpeedRelative="0.06" duration="1582316398312"/>
    <step time="00:00:01.15" loaded="6" inserted="2" running="2" waiting="3" ended="0" arrived="0" collisions="0" teleports="0" halting="0" meanWaitingTime="0.00" meanTravelTime="-1.00" meanSpeed="0.80" meanSpeedRelative="0.06" duration="1582316398334"/>
    <step time="00:00:01.20" loaded="6" inserted="2" running="2" waiting="3" ended="0" arrived="0" collisions="0" teleports="0" halting="0" meanWaitingTime="0.00" meanTravelTime="-1.00" meanSpeed="0.83" meanSpeedRelative="0.06" duration="1582316398360"/>
    <step time="00:00:01.25" loaded="6" inserted="2" running="2" waiting="3" ended="0" arrived="0" collisions="0" teleports="0" halting="0" meanWaitingTime="0.00" meanTravelTime="-1.00" meanSpeed="0.86" meanSpeedRelative="0.06" duration="1582316398383"/>
    <step time="00:00:01.30" loaded="6" inserted="2" running="2" waiting="3" ended="0" arrived="0" collisions="0" teleports="0" halting="0" meanWaitingTime="0.00" meanTravelTime="-1.00" meanSpeed="0.90" meanSpeedRelative="0.06" duration="1582316398406"/>
    <step time="00:00:01.35" loaded="6" inserted="2" running="2" waiting="3" ended="0" arrived="0" collisions="0" teleports="0" halting="0" meanWaitingTime="0.00" meanTravelTime="-1.00" meanSpeed="0.92" meanSpeedRelative="0.07" duration="1582316398434"/>
    <step time="00:00:01.40" loaded="6" inserted="2" running="2" waiting="3" ended="0" arrived="0" collisions="0" teleports="0" halting="0" meanWaitingTime="0.00" meanTravelTime="-1.00" meanSpeed="0.96" meanSpeedRelative="0.07" duration="1582316398456"/>
    <step time="00:00:01.45" loaded="6" inserted="2" running="2" waiting="3" ended="0" arrived="0" collisions="0" teleports="0" halting="0" meanWaitingTime="0.00" meanTravelTime="-1.00" meanSpeed="0.99" meanSpeedRelative="0.07" duration="1582316398481"/>
    <step time="00:00:01.50" loaded="6" inserted="2" running="2" waiting="3" ended="0" arrived="0" collisions="0" teleports="0" halting="0" meanWaitingTime="0.00" meanTravelTime="-1.00" meanSpeed="1.02" meanSpeedRelative="0.07" duration="1582316398508"/>
    <step time="00:00:01.55" loaded="6" inserted="2" running="2" waiting="3" ended="0" arrived="0" collisions="0" teleports="0" halting="0" meanWaitingTime="0.00" meanTravelTime="-1.00" meanSpeed="1.05" meanSpeedRelative="0.08" duration="1582316398535"/>
    <step time="00:00:01.60" loaded="6" inserted="2" running="2" waiting="3" ended="0" arrived="0" collisions="0" teleports="0" halting="0" meanWaitingTime="0.00" meanTravelTime="-1.00" meanSpeed="1.09" meanSpeedRelative="0.08" duration="1582316398559"/>
    <step time="00:00:01.65" loaded="6" inserted="2" running="2" waiting="3" ended="0" arrived="0" collisions="0" teleports="0" halting="0" meanWaitingTime="0.00" meanTravelTime="-1.00" meanSpeed="1.12" meanSpeedRelative="0.08" duration="1582316398590"/>
    <step time="00:00:01.70" loaded="6" inserted="2" running="2" waiting="3" ended="0" arrived="0" collisions="0" teleports="0" halting="0" meanWaitingTime="0.00" meanTravelTime="-1.00" meanSpeed="1.15" meanSpeedRelative="0.08" duration="1582316398617"/>
    <step time="00:00:01.75" loaded="6" inserted="2" running="2" waiting="3" ended="0" arrived="0" collisions="0" teleports="0" halting="0" meanWaitingTime="0.00" meanTravelTime="-1.00" meanSpeed="1.17" meanSpeedRelative="0.08" duration="1582316398645"/>
    <step time="00:00:01.80" loaded="6" inserted="2" running="2" waiting="3" ended="0" arrived="0" collisions="0" teleports="0" halting="0" meanWaitingTime="0.00" meanTravelTime="-1.00" meanSpeed="1.20" meanSpeedRelative="0.09" duration="1582316398670"/>
    <step time="00:00:01.85" loaded="6" inserted="2" running="2" waiting="3" ended="0" arrived="0" collisions="0" teleports="0" halting="0" meanWaitingTime="0.00" meanTravelTime="-1.00" meanSpeed="1.23" meanSpeedRelative="0.09" duration="1582316398692"/>
    <step time="00:00:01.90" loaded="6" inserted="2" running="2" waiting="3" ended="0" arrived="0" collisions="0" teleports="0" halting="0" meanWaitingTime="0.00" meanTravelTime="-1.00" meanSpeed="1.26" meanSpeedRelative="0.09" duration="1582316398709"/>
    <step time="00:00:01.95" loaded="6" inserted="2" running="2" waiting="3" ended="0" arrived="0" collisions="0" teleports="0" halting="0" meanWaitingTime="0.00" meanTravelTime="-1.00" meanSpeed="1.29" meanSpeedRelative="0.09" duration="1582316398733"/>
    <step time="00:00:02.00" loaded="6" inserted="2" running="2" waiting="3" ended="0" arrived="0" collisions="0" teleports="0" halting="0" meanWaitingTime="0.00" meanTravelTime="-1.00" meanSpeed="1.31" meanSpeedRelative="0.09" duration="1582316398756"/>
    <step time="00:00:02.05" loaded="6" inserted="2" running="2" waiting="3" ended="0" arrived="0" collisions="0" teleports="0" halting="0" meanWaitingTime="0.00" meanTravelTime="-1.00" meanSpeed="1.34" meanSpeedRelative="0.10" duration="1582316398778"/>
    <step time="00:00:02.10" loaded="6" inserted="2" running="2" waiting="3" ended="0" arrived="0" collisions="0" teleports="0" halting="0" meanWaitingTime="0.00" meanTravelTime="-1.00" meanSpeed="1.37" meanSpeedRelative="0.10" duration="1582316398798"/>
    <step time="00:00:02.15" loaded="6" inserted="2" running="2" waiting="3" ended="0" arrived="0" collisions="0" teleports="0" halting="0" meanWaitingTime="0.00" meanTravelTime="-1.00" meanSpeed="1.41" meanSpeedRelative="0.10" duration="1582316398840"/>
    <step time="00:00:02.20" loaded="6" inserted="2" running="2" waiting="3" ended="0" arrived="0" collisions="0" teleports="0" halting="0" meanWaitingTime="0.00" meanTravelTime="-1.00" meanSpeed="1.44" meanSpeedRelative="0.10" duration="1582316398857"/>
    <step time="00:00:02.25" loaded="6" inserted="2" running="2" waiting="3" ended="0" arrived="0" collisions="0" teleports="0" halting="0" meanWaitingTime="0.00" meanTravelTime="-1.00" meanSpeed="1.47" meanSpeedRelative="0.11" duration="1582316398879"/>
    <step time="00:00:02.30" loaded="6" inserted="2" running="2" waiting="3" ended="0" arrived="0" collisions="0" teleports="0" halting="0" meanWaitingTime="0.00" meanTravelTime="-1.00" meanSpeed="1.50" meanSpeedRelative="0.11" duration="1582316398904"/>
    <step time="00:00:02.35" loaded="6" inserted="2" running="2" waiting="3" ended="0" arrived="0" collisions="0" teleports="0" halting="0" meanWaitingTime="0.00" meanTravelTime="-1.00" meanSpeed="1.54" meanSpeedRelative="0.11" duration="1582316398927"/>
    <step time="00:00:02.40" loaded="6" inserted="2" running="2" waiting="3" ended="0" arrived="0" collisions="0" teleports="0" halting="0" meanWaitingTime="0.00" meanTravelTime="-1.00" meanSpeed="1.57" meanSpeedRelative="0.11" duration="1582316398946"/>
    <step time="00:00:02.45" loaded="6" inserted="2" running="2" waiting="3" ended="0" arrived="0" collisions="0" teleports="0" halting="0" meanWaitingTime="0.00" meanTravelTime="-1.00" meanSpeed="1.59" meanSpeedRelative="0.11" duration="1582316398968"/>
    <step time="00:00:02.50" loaded="6" inserted="2" running="2" waiting="3" ended="0" arrived="0" collisions="0" teleports="0" halting="0" meanWaitingTime="0.00" meanTravelTime="-1.00" meanSpeed="1.63" meanSpeedRelative="0.12" duration="1582316398988"/>
    <step time="00:00:02.55" loaded="6" inserted="2" running="2" waiting="3" ended="0" arrived="0" collisions="0" teleports="0" halting="0" meanWaitingTime="0.00" meanTravelTime="-1.00" meanSpeed="1.66" meanSpeedRelative="0.12" duration="1582316399005"/>
    <step time="00:00:02.60" loaded="6" inserted="2" running="2" waiting="3" ended="0" arrived="0" collisions="0" teleports="0" halting="0" meanWaitingTime="0.00" meanTravelTime="-1.00" meanSpeed="1.69" meanSpeedRelative="0.12" duration="1582316399028"/>
    <step time="00:00:02.65" loaded="6" inserted="2" running="2" waiting="3" ended="0" arrived="0" collisions="0" teleports="0" halting="0" meanWaitingTime="0.00" meanTravelTime="-1.00" meanSpeed="1.73" meanSpeedRelative="0.12" duration="1582316399044"/>
    <step time="00:00:02.70" loaded="6" inserted="2" running="2" waiting="3" ended="0" arrived="0" collisions="0" teleports="0" halting="0" meanWaitingTime="0.00" meanTravelTime="-1.00" meanSpeed="1.76" meanSpeedRelative="0.13" duration="1582316399065"/>
    <step time="00:00:02.75" loaded="6" inserted="2" running="2" waiting="3" ended="0" arrived="0" collisions="0" teleports="0" halting="0" meanWaitingTime="0.00" meanTravelTime="-1.00" meanSpeed="1.80" meanSpeedRelative="0.13" duration="1582316399091"/>
    <step time="00:00:02.80" loaded="6" inserted="2" running="2" waiting="3" ended="0" arrived="0" collisions="0" teleports="0" halting="0" meanWaitingTime="0.00" meanTravelTime="-1.00" meanSpeed="1.83" meanSpeedRelative="0.13" duration="1582316399112"/>
    <step time="00:00:02.85" loaded="6" inserted="2" running="2" waiting="3" ended="0" arrived="0" collisions="0" teleports="0" halting="0" meanWaitingTime="0.00" meanTravelTime="-1.00" meanSpeed="1.86" meanSpeedRelative="0.13" duration="1582316399135"/>
    <step time="00:00:02.90" loaded="6" inserted="2" running="2" waiting="3" ended="0" arrived="0" collisions="0" teleports="0" halting="0" meanWaitingTime="0.00" meanTravelTime="-1.00" meanSpeed="1.89" meanSpeedRelative="0.14" duration="1582316399160"/>
    <step time="00:00:02.95" loaded="6" inserted="2" running="2" waiting="3" ended="0" arrived="0" collisions="0" teleports="0" halting="0" meanWaitingTime="0.00" meanTravelTime="-1.00" meanSpeed="1.93" meanSpeedRelative="0.14" duration="1582316399183"/>
    <step time="00:00:03.00" loaded="6" inserted="2" running="2" waiting="3" ended="0" arrived="0" collisions="0" teleports="0" halting="0" meanWaitingTime="0.00" meanTravelTime="-1.00" meanSpeed="1.95" meanSpeedRelative="0.14" duration="1582316399204"/>
    <step time="00:00:03.05" loaded="6" inserted="2" running="2" waiting="3" ended="0" arrived="0" collisions="0" teleports="0" halting="0" meanWaitingTime="0.00" meanTravelTime="-1.00" meanSpeed="1.98" meanSpeedRelative="0.14" duration="1582316399228"/>
    <step time="00:00:03.10" loaded="6" inserted="2" running="2" waiting="3" ended="0" arrived="0" collisions="0" teleports="0" halting="0" meanWaitingTime="0.00" meanTravelTime="-1.00" meanSpeed="2.01" meanSpeedRelative="0.14" duration="1582316399250"/>
    <step time="00:00:03.15" loaded="6" inserted="2" running="2" waiting="3" ended="0" arrived="0" collisions="0" teleports="0" halting="0" meanWaitingTime="0.00" meanTravelTime="-1.00" meanSpeed="2.04" meanSpeedRelative="0.15" duration="1582316399271"/>
    <step time="00:00:03.20" loaded="6" inserted="2" running="2" waiting="3" ended="0" arrived="0" collisions="0" teleports="0" halting="0" meanWaitingTime="0.00" meanTravelTime="-1.00" meanSpeed="2.07" meanSpeedRelative="0.15" duration="1582316399295"/>
    <step time="00:00:03.25" loaded="6" inserted="2" running="2" waiting="3" ended="0" arrived="0" collisions="0" teleports="0" halting="0" meanWaitingTime="0.00" meanTravelTime="-1.00" meanSpeed="2.09" meanSpeedRelative="0.15" duration="1582316399315"/>
    <step time="00:00:03.30" loaded="6" inserted="2" running="2" waiting="3" ended="0" arrived="0" collisions="0" teleports="0" halting="0" meanWaitingTime="0.00" meanTravelTime="-1.00" meanSpeed="2.12" meanSpeedRelative="0.15" duration="1582316399337"/>
    <step time="00:00:03.35" loaded="6" inserted="2" running="2" waiting="3" ended="0" arrived="0" collisions="0" teleports="0" halting="0" meanWaitingTime="0.00" meanTravelTime="-1.00" meanSpeed="2.16" meanSpeedRelative="0.16" duration="1582316399362"/>
    <step time="00:00:03.40" loaded="6" inserted="2" running="2" waiting="3" ended="0" arrived="0" collisions="0" teleports="0" halting="0" meanWaitingTime="0.00" meanTravelTime="-1.00" meanSpeed="2.19" meanSpeedRelative="0.16" duration="1582316399381"/>
    <step time="00:00:03.45" loaded="6" inserted="2" running="2" waiting="3" ended="0" arrived="0" collisions="0" teleports="0" halting="0" meanWaitingTime="0.00" meanTravelTime="-1.00" meanSpeed="2.22" meanSpeedRelative="0.16" duration="1582316399404"/>
    <step time="00:00:03.50" loaded="6" inserted="2" running="2" waiting="3" ended="0" arrived="0" collisions="0" teleports="0" halting="0" meanWaitingTime="0.00" meanTravelTime="-1.00" meanSpeed="2.24" meanSpeedRelative="0.16" duration="1582316399424"/>
    <step time="00:00:03.55" loaded="6" inserted="2" running="2" waiting="3" ended="0" arrived="0" collisions="0" teleports="0" halting="0" meanWaitingTime="0.00" meanTravelTime="-1.00" meanSpeed="2.27" meanSpeedRelative="0.16" duration="1582316399450"/>
    <step time="00:00:03.60" loaded="6" inserted="2" running="2" waiting="3" ended="0" arrived="0" collisions="0" teleports="0" halting="0" meanWaitingTime="0.00" meanTravelTime="-1.00" meanSpeed="2.31" meanSpeedRelative="0.17" duration="1582316399471"/>
    <step time="00:00:03.65" loaded="6" inserted="2" running="2" waiting="3" ended="0" arrived="0" collisions="0" teleports="0" halting="0" meanWaitingTime="0.00" meanTravelTime="-1.00" meanSpeed="2.34" meanSpeedRelative="0.17" duration="1582316399498"/>
    <step time="00:00:03.70" loaded="6" inserted="2" running="2" waiting="3" ended="0" arrived="0" collisions="0" teleports="0" halting="0" meanWaitingTime="0.00" meanTravelTime="-1.00" meanSpeed="2.37" meanSpeedRelative="0.17" duration="1582316399526"/>
    <step time="00:00:03.75" loaded="6" inserted="2" running="2" waiting="3" ended="0" arrived="0" collisions="0" teleports="0" halting="0" meanWaitingTime="0.00" meanTravelTime="-1.00" meanSpeed="2.41" meanSpeedRelative="0.17" duration="1582316399550"/>
    <step time="00:00:03.80" loaded="6" inserted="2" running="2" waiting="3" ended="0" arrived="0" collisions="0" teleports="0" halting="0" meanWaitingTime="0.00" meanTravelTime="-1.00" meanSpeed="2.44" meanSpeedRelative="0.18" duration="1582316399573"/>
    <step time="00:00:03.85" loaded="6" inserted="2" running="2" waiting="3" ended="0" arrived="0" collisions="0" teleports="0" halting="0" meanWaitingTime="0.00" meanTravelTime="-1.00" meanSpeed="2.46" meanSpeedRelative="0.18" duration="1582316399622"/>
    <step time="00:00:03.90" loaded="6" inserted="2" running="2" waiting="3" ended="0" arrived="0" collisions="0" teleports="0" halting="0" meanWaitingTime="0.00" meanTravelTime="-1.00" meanSpeed="2.50" meanSpeedRelative="0.18" duration="1582316399645"/>
    <step time="00:00:03.95" loaded="6" inserted="2" running="2" waiting="3" ended="0" arrived="0" collisions="0" teleports="0" halting="0" meanWaitingTime="0.00" meanTravelTime="-1.00" meanSpeed="2.53" meanSpeedRelative="0.18" duration="1582316399666"/>
    <step time="00:00:04.00" loaded="6" inserted="2" running="2" waiting="3" ended="0" arrived="0" collisions="0" teleports="0" halting="0" meanWaitingTime="0.00" meanTravelTime="-1.00" meanSpeed="2.56" meanSpeedRelative="0.18" duration="1582316399691"/>
    <step time="00:00:04.05" loaded="6" inserted="2" running="2" waiting="3" ended="0" arrived="0" collisions="0" teleports="0" halting="0" meanWaitingTime="0.00" meanTravelTime="-1.00" meanSpeed="2.59" meanSpeedRelative="0.19" duration="1582316399716"/>
    <step time="00:00:04.10" loaded="6" inserted="2" running="2" waiting="3" ended="0" arrived="0" collisions="0" teleports="0" halting="0" meanWaitingTime="0.00" meanTravelTime="-1.00" meanSpeed="2.62" meanSpeedRelative="0.19" duration="1582316399740"/>
    <step time="00:00:04.15" loaded="6" inserted="2" running="2" waiting="3" ended="0" arrived="0" collisions="0" teleports="0" halting="0" meanWaitingTime="0.00" meanTravelTime="-1.00" meanSpeed="2.65" meanSpeedRelative="0.19" duration="1582316399774"/>
    <step time="00:00:04.20" loaded="6" inserted="2" running="2" waiting="3" ended="0" arrived="0" collisions="0" teleports="0" halting="0" meanWaitingTime="0.00" meanTravelTime="-1.00" meanSpeed="2.68" meanSpeedRelative="0.19" duration="1582316399798"/>
    <step time="00:00:04.25" loaded="6" inserted="2" running="2" waiting="3" ended="0" arrived="0" collisions="0" teleports="0" halting="0" meanWaitingTime="0.00" meanTravelTime="-1.00" meanSpeed="2.70" meanSpeedRelative="0.19" duration="1582316399826"/>
    <step time="00:00:04.30" loaded="6" inserted="2" running="2" waiting="3" ended="0" arrived="0" collisions="0" teleports="0" halting="0" meanWaitingTime="0.00" meanTravelTime="-1.00" meanSpeed="2.73" meanSpeedRelative="0.20" duration="1582316399852"/>
    <step time="00:00:04.35" loaded="6" inserted="2" running="2" waiting="3" ended="0" arrived="0" collisions="0" teleports="0" halting="0" meanWaitingTime="0.00" meanTravelTime="-1.00" meanSpeed="2.76" meanSpeedRelative="0.20" duration="1582316399876"/>
    <step time="00:00:04.40" loaded="6" inserted="2" running="2" waiting="3" ended="0" arrived="0" collisions="0" teleports="0" halting="0" meanWaitingTime="0.00" meanTravelTime="-1.00" meanSpeed="2.78" meanSpeedRelative="0.20" duration="1582316399899"/>
    <step time="00:00:04.45" loaded="6" inserted="2" running="2" waiting="3" ended="0" arrived="0" collisions="0" teleports="0" halting="0" meanWaitingTime="0.00" meanTravelTime="-1.00" meanSpeed="2.81" meanSpeedRelative="0.20" duration="1582316399927"/>
    <step time="00:00:04.50" loaded="6" inserted="2" running="2" waiting="3" ended="0" arrived="0" collisions="0" teleports="0" halting="0" meanWaitingTime="0.00" meanTravelTime="-1.00" meanSpeed="2.84" meanSpeedRelative="0.20" duration="1582316399950"/>
    <step time="00:00:04.55" loaded="6" inserted="2" running="2" waiting="3" ended="0" arrived="0" collisions="0" teleports="0" halting="0" meanWaitingTime="0.00" meanTravelTime="-1.00" meanSpeed="2.87" meanSpeedRelative="0.21" duration="1582316399974"/>
    <step time="00:00:04.60" loaded="6" inserted="2" running="2" waiting="3" ended="0" arrived="0" collisions="0" teleports="0" halting="0" meanWaitingTime="0.00" meanTravelTime="-1.00" meanSpeed="2.90" meanSpeedRelative="0.21" duration="1582316400000"/>
    <step time="00:00:04.65" loaded="6" inserted="2" running="2" waiting="3" ended="0" arrived="0" collisions="0" teleports="0" halting="0" meanWaitingTime="0.00" meanTravelTime="-1.00" meanSpeed="2.93" meanSpeedRelative="0.21" duration="1582316400024"/>
    <step time="00:00:04.70" loaded="6" inserted="2" running="2" waiting="3" ended="0" arrived="0" collisions="0" teleports="0" halting="0" meanWaitingTime="0.00" meanTravelTime="-1.00" meanSpeed="2.95" meanSpeedRelative="0.21" duration="1582316400046"/>
    <step time="00:00:04.75" loaded="6" inserted="2" running="2" waiting="3" ended="0" arrived="0" collisions="0" teleports="0" halting="0" meanWaitingTime="0.00" meanTravelTime="-1.00" meanSpeed="2.99" meanSpeedRelative="0.22" duration="1582316400075"/>
    <step time="00:00:04.80" loaded="6" inserted="4" running="4" waiting="1" ended="0" arrived="0" collisions="0" teleports="0" halting="2" meanWaitingTime="2.40" meanTravelTime="-1.00" meanSpeed="1.51" meanSpeedRelative="0.11" duration="1582316400098"/>
    <step time="00:00:04.85" loaded="6" inserted="4" running="4" waiting="1" ended="0" arrived="0" collisions="0" teleports="0" halting="2" meanWaitingTime="2.40" meanTravelTime="-1.00" meanSpeed="1.54" meanSpeedRelative="0.11" duration="1582316400149"/>
    <step time="00:00:04.90" loaded="6" inserted="4" running="4" waiting="1" ended="0" arrived="0" collisions="0" teleports="0" halting="2" meanWaitingTime="2.40" meanTravelTime="-1.00" meanSpeed="1.58" meanSpeedRelative="0.11" duration="1582316400193"/>
    <step time="00:00:04.95" loaded="6" inserted="4" running="4" waiting="1" ended="0" arrived="0" collisions="0" teleports="0" halting="0" meanWaitingTime="2.40" meanTravelTime="-1.00" meanSpeed="1.61" meanSpeedRelative="0.12" duration="1582316400239"/>
    <step time="00:00:05.00" loaded="6" inserted="4" running="4" waiting="1" ended="0" arrived="0" collisions="0" teleports="0" halting="0" meanWaitingTime="2.40" meanTravelTime="-1.00" meanSpeed="1.64" meanSpeedRelative="0.12" duration="1582316400284"/>
    <step time="00:00:05.05" loaded="6" inserted="4" running="4" waiting="1" ended="0" arrived="0" collisions="0" teleports="0" halting="0" meanWaitingTime="2.40" meanTravelTime="-1.00" meanSpeed="1.68" meanSpeedRelative="0.12" duration="1582316400336"/>
    <step time="00:00:05.10" loaded="6" inserted="4" running="4" waiting="1" ended="0" arrived="0" collisions="0" teleports="0" halting="0" meanWaitingTime="2.40" meanTravelTime="-1.00" meanSpeed="1.71" meanSpeedRelative="0.12" duration="1582316400389"/>
    <step time="00:00:05.15" loaded="6" inserted="4" running="4" waiting="1" ended="0" arrived="0" collisions="0" teleports="0" halting="0" meanWaitingTime="2.40" meanTravelTime="-1.00" meanSpeed="1.74" meanSpeedRelative="0.13" duration="1582316400436"/>
    <step time="00:00:05.20" loaded="6" inserted="4" running="4" waiting="1" ended="0" arrived="0" collisions="0" teleports="0" halting="0" meanWaitingTime="2.40" meanTravelTime="-1.00" meanSpeed="1.77" meanSpeedRelative="0.13" duration="1582316400501"/>
    <step time="00:00:05.25" loaded="6" inserted="4" running="4" waiting="1" ended="0" arrived="0" collisions="0" teleports="0" halting="0" meanWaitingTime="2.40" meanTravelTime="-1.00" meanSpeed="1.81" meanSpeedRelative="0.13" duration="1582316400543"/>
    <step time="00:00:05.30" loaded="6" inserted="4" running="4" waiting="1" ended="0" arrived="0" collisions="0" teleports="0" halting="0" meanWaitingTime="2.40" meanTravelTime="-1.00" meanSpeed="1.84" meanSpeedRelative="0.13" duration="1582316400589"/>
    <step time="00:00:05.35" loaded="6" inserted="4" running="4" waiting="1" ended="0" arrived="0" collisions="0" teleports="0" halting="0" meanWaitingTime="2.40" meanTravelTime="-1.00" meanSpeed="1.87" meanSpeedRelative="0.13" duration="1582316400639"/>
    <step time="00:00:05.40" loaded="6" inserted="4" running="4" waiting="1" ended="0" arrived="0" collisions="0" teleports="0" halting="0" meanWaitingTime="2.40" meanTravelTime="-1.00" meanSpeed="1.91" meanSpeedRelative="0.14" duration="1582316400682"/>
    <step time="00:00:05.45" loaded="6" inserted="4" running="4" waiting="1" ended="0" arrived="0" collisions="0" teleports="0" halting="0" meanWaitingTime="2.40" meanTravelTime="-1.00" meanSpeed="1.95" meanSpeedRelative="0.14" duration="1582316400723"/>
    <step time="00:00:05.50" loaded="6" inserted="4" running="4" waiting="1" ended="0" arrived="0" collisions="0" teleports="0" halting="0" meanWaitingTime="2.40" meanTravelTime="-1.00" meanSpeed="1.98" meanSpeedRelative="0.14" duration="1582316400766"/>
    <step time="00:00:05.55" loaded="6" inserted="4" running="4" waiting="1" ended="0" arrived="0" collisions="0" teleports="0" halting="0" meanWaitingTime="2.40" meanTravelTime="-1.00" meanSpeed="2.01" meanSpeedRelative="0.14" duration="1582316400809"/>