<?xml version="1.0" encoding="UTF-8"?>

<!-- generated on Tue Apr 14 09:56:48 2020 by Eclipse SUMO GUI Version 1.2.0
<configuration xmlns:xsi="http://www.w3.org/2001/XMLSchema-instance" xsi:noNamespaceSchemaLocation="http://sumo.dlr.de/xsd/sumoConfiguration.xsd">

    <input>
        <net-file value="./SUMO/test.net.xml"/>
        <route-files value="./SUMO/100Vehicles.rou.xml"/>
    </input>

    <output>
        <human-readable-time value="false"/>
        <summary-output value="./SUMO/results/summaryOutput25car.xml"/>
        <tripinfo-output value="./SUMO/results/tripInfo25car.xml"/>
    </output>

    <time>
        <begin value="28.0"/>
        <step-length value="0.15"/>
    </time>

    <processing>
        <lateral-resolution value="0.8"/>
        <route-steps value="250"/>
    </processing>

    <traci_server>
        <remote-port value="50783"/>
    </traci_server>

    <gui_only>
        <gui-settings-file value="./SUMO/test.settings.xml"/>
        <quit-on-end value="false"/>
        <start value="true"/>
        <tracker-interval value="0.15"/>
    </gui_only>

</configuration>
-->

<tripinfos xmlns:xsi="http://www.w3.org/2001/XMLSchema-instance" xsi:noNamespaceSchemaLocation="http://sumo.dlr.de/xsd/tripinfo_file.xsd">
    <tripinfo id="36" depart="71.95" departLane="D1D2_0" departPos="5.10" departPosLat="0.00" departSpeed="0.00" departDelay="-0.05" arrival="81.10" arrivalLane="D1D2_0" arrivalPos="82.40" arrivalPosLat="0.00" arrivalSpeed="12.74" duration="9.15" routeLength="77.30" waitingTime="0.00" waitingCount="0" stopTime="0.00" timeLoss="3.10" rerouteNo="0" devices="tripinfo_36" vType="DEFAULT_VEHTYPE" speedFactor="0.93" vaporized=""/>
    <tripinfo id="15" depart="29.95" departLane="E1D1_0" departPos="5.10" departPosLat="0.00" departSpeed="0.00" departDelay="-0.05" arrival="90.55" arrivalLane="B2B1_0" arrivalPos="82.40" arrivalPosLat="0.00" arrivalSpeed="14.59" duration="60.60" routeLength="651.59" waitingTime="0.00" waitingCount="0" stopTime="0.00" timeLoss="14.30" rerouteNo="0" devices="tripinfo_15" vType="DEFAULT_VEHTYPE" speedFactor="1.06" vaporized=""/>
    <tripinfo id="21" depart="44.65" departLane="D2C2_0" departPos="5.10" departPosLat="0.00" departSpeed="0.00" departDelay="2.65" arrival="93.25" arrivalLane="B4C4_0" arrivalPos="82.40" arrivalPosLat="0.00" arrivalSpeed="11.40" duration="48.60" routeLength="460.16" waitingTime="0.00" waitingCount="0" stopTime="0.00" timeLoss="6.80" rerouteNo="0" devices="tripinfo_21" vType="DEFAULT_VEHTYPE" speedFactor="0.83" vaporized=""/>
    <tripinfo id="16" depart="31.90" departLane="D3D2_0" departPos="5.10" departPosLat="0.00" departSpeed="0.00" departDelay="-0.10" arrival="95.50" arrivalLane="C2C1_0" arrivalPos="82.40" arrivalPosLat="0.00" arrivalSpeed="13.02" duration="63.60" routeLength="643.02" waitingTime="0.00" waitingCount="0" stopTime="0.00" timeLoss="11.05" rerouteNo="0" devices="tripinfo_16" vType="DEFAULT_VEHTYPE" speedFactor="0.94" vaporized=""/>
    <tripinfo id="26" depart="52.90" departLane="A1A2_0" departPos="5.10" departPosLat="0.00" departSpeed="0.00" departDelay="0.90" arrival="100.60" arrivalLane="B2A2_0" arrivalPos="82.40" arrivalPosLat="0.00" arrivalSpeed="11.74" duration="47.70" routeLength="451.59" waitingTime="0.00" waitingCount="0" stopTime="0.00" timeLoss="7.22" rerouteNo="0" devices="tripinfo_26" vType="DEFAULT_VEHTYPE" speedFactor="0.86" vaporized=""/>
    <tripinfo id="22" depart="43.90" departLane="B1A1_0" departPos="5.10" departPosLat="0.00" departSpeed="0.00" departDelay="-0.10" arrival="101.05" arrivalLane="C1B1_0" arrivalPos="82.40" arrivalPosLat="0.00" arrivalSpeed="14.37" duration="57.15" routeLength="543.02" waitingTime="0.00" waitingCount="0" stopTime="0.00" timeLoss="16.99" rerouteNo="0" devices="tripinfo_22" vType="DEFAULT_VEHTYPE" speedFactor="1.05" vaporized=""/>
    <tripinfo id="27" depart="53.95" departLane="E4E3_0" departPos="5.10" departPosLat="0.00" departSpeed="0.00" departDelay="-0.05" arrival="101.95" arrivalLane="D2E2_0" arrivalPos="82.40" arrivalPosLat="0.00" arrivalSpeed="15.02" duration="48.00" routeLength="555.59" waitingTime="0.00" waitingCount="0" stopTime="0.00" timeLoss="9.24" rerouteNo="0" devices="tripinfo_27" vType="DEFAULT_VEHTYPE" speedFactor="1.09" vaporized=""/>
    <tripinfo id="20" depart="40.00" departLane="C1C0_0" departPos="5.10" departPosLat="0.00" departSpeed="0.00" departDelay="0.00" arrival="103.90" arrivalLane="C4D4_0" arrivalPos="82.40" arrivalPosLat="0.00" arrivalSpeed="14.28" duration="63.90" routeLength="751.59" waitingTime="0.00" waitingCount="0" stopTime="0.00" timeLoss="9.11" rerouteNo="0" devices="tripinfo_20" vType="DEFAULT_VEHTYPE" speedFactor="1.03" vaporized=""/>
    <tripinfo id="37" depart="75.55" departLane="E3D3_0" departPos="5.10" departPosLat="0.00" departSpeed="0.00" departDelay="1.55" arrival="115.75" arrivalLane="E4E3_0" arrivalPos="86.40" arrivalPosLat="0.00" arrivalSpeed="12.02" duration="40.20" routeLength="353.14" waitingTime="0.00" waitingCount="0" stopTime="0.00" timeLoss="8.96" rerouteNo="0" devices="tripinfo_37" vType="DEFAULT_VEHTYPE" speedFactor="0.88" vaporized=""/>
    <tripinfo id="49" depart="97.90" departLane="B2B3_0" departPos="5.10" departPosLat="0.00" departSpeed="0.00" departDelay="-0.10" arrival="117.10" arrivalLane="B3C3_0" arrivalPos="82.40" arrivalPosLat="0.00" arrivalSpeed="12.03" duration="19.20" routeLength="168.73" waitingTime="0.00" waitingCount="0" stopTime="0.00" timeLoss="4.34" rerouteNo="0" devices="tripinfo_49" vType="DEFAULT_VEHTYPE" speedFactor="0.87" vaporized=""/>
    <tripinfo id="46" depart="91.90" departLane="A1B1_0" departPos="5.10" departPosLat="0.00" departSpeed="0.00" departDelay="-0.10" arrival="119.35" arrivalLane="C1C0_0" arrivalPos="82.40" arrivalPosLat="0.00" arrivalSpeed="13.50" duration="27.45" routeLength="268.73" waitingTime="0.00" waitingCount="0" stopTime="0.00" timeLoss="6.79" rerouteNo="0" devices="tripinfo_46" vType="DEFAULT_VEHTYPE" speedFactor="0.98" vaporized=""/>
    <tripinfo id="31" depart="67.15" departLane="A2B2_0" departPos="5.10" departPosLat="0.00" departSpeed="0.00" departDelay="5.15" arrival="120.25" arrivalLane="B1B2_0" arrivalPos="82.40" arrivalPosLat="0.00" arrivalSpeed="14.36" duration="53.10" routeLength="451.59" waitingTime="3.00" waitingCount="2" stopTime="0.00" timeLoss="19.96" rerouteNo="0" devices="tripinfo_31" vType="DEFAULT_VEHTYPE" speedFactor="1.05" vaporized=""/>
    <tripinfo id="19" depart="37.90" departLane="E2E1_0" departPos="5.10" departPosLat="0.00" departSpeed="0.00" departDelay="-0.10" arrival="120.85" arrivalLane="C3B3_0" arrivalPos="82.40" arrivalPosLat="0.00" arrivalSpeed="14.97" duration="82.95" routeLength="936.00" waitingTime="0.00" waitingCount="0" stopTime="0.00" timeLoss="17.60" rerouteNo="0" devices="tripinfo_19" vType="DEFAULT_VEHTYPE" speedFactor="1.08" vaporized=""/>
    <tripinfo id="25" depart="49.90" departLane="B0A0_0" departPos="5.10" departPosLat="0.00" departSpeed="0.00" departDelay="-0.10" arrival="123.25" arrivalLane="B1B2_0" arrivalPos="82.40" arrivalPosLat="0.00" arrivalSpeed="12.98" duration="73.35" routeLength="736.00" waitingTime="0.00" waitingCount="0" stopTime="0.00" timeLoss="13.27" rerouteNo="0" devices="tripinfo_25" vType="DEFAULT_VEHTYPE" speedFactor="0.94" vaporized=""/>
    <tripinfo id="18" depart="35.95" departLane="C3C4_0" departPos="5.10" departPosLat="0.00" departSpeed="0.00" departDelay="-0.05" arrival="127.45" arrivalLane="B3B2_0" arrivalPos="82.40" arrivalPosLat="0.00" arrivalSpeed="13.94" duration="91.50" routeLength="927.43" waitingTime="0.15" waitingCount="1" stopTime="0.00" timeLoss="21.39" rerouteNo="0" devices="tripinfo_18" vType="DEFAULT_VEHTYPE" speedFactor="1.01" vaporized=""/>
    <tripinfo id="23" depart="46.00" departLane="D3D4_0" departPos="5.10" departPosLat="0.00" departSpeed="0.00" departDelay="0.00" arrival="130.15" arrivalLane="D1E1_0" arrivalPos="82.40" arrivalPosLat="0.00" arrivalSpeed="12.26" duration="84.15" routeLength="837.55" waitingTime="0.00" waitingCount="0" stopTime="0.00" timeLoss="12.69" rerouteNo="0" devices="tripinfo_23" vType="DEFAULT_VEHTYPE" speedFactor="0.89" vaporized=""/>
    <tripinfo id="35" depart="70.00" departLane="E3E2_0" departPos="5.10" departPosLat="0.00" departSpeed="0.00" departDelay="0.00" arrival="131.95" arrivalLane="B1A1_0" arrivalPos="82.40" arrivalPosLat="0.00" arrivalSpeed="13.69" duration="61.95" routeLength="568.73" waitingTime="5.25" waitingCount="1" stopTime="0.00" timeLoss="19.91" rerouteNo="0" devices="tripinfo_35" vType="DEFAULT_VEHTYPE" speedFactor="0.99" vaporized=""/>
    <tripinfo id="34" depart="67.90" departLane="C3D3_0" departPos="5.10" departPosLat="0.00" departSpeed="0.00" departDelay="-0.10" arrival="134.20" arrivalLane="C4C3_0" arrivalPos="82.40" arrivalPosLat="0.00" arrivalSpeed="15.41" duration="66.30" routeLength="734.45" waitingTime="0.00" waitingCount="0" stopTime="0.00" timeLoss="15.91" rerouteNo="0" devices="tripinfo_34" vType="DEFAULT_VEHTYPE" speedFactor="1.12" vaporized=""/>
    <tripinfo id="30" depart="59.95" departLane="C3D3_0" departPos="5.10" departPosLat="0.00" departSpeed="0.00" departDelay="-0.05" arrival="134.35" arrivalLane="D1E1_0" arrivalPos="82.40" arrivalPosLat="0.00" arrivalSpeed="14.15" duration="74.40" routeLength="744.57" waitingTime="0.30" waitingCount="1" stopTime="0.00" timeLoss="19.48" rerouteNo="0" devices="tripinfo_30" vType="DEFAULT_VEHTYPE" speedFactor="1.03" vaporized=""/>
    <tripinfo id="42" depart="83.95" departLane="C1C0_0" departPos="5.10" departPosLat="0.00" departSpeed="0.00" departDelay="-0.05" arrival="136.45" arrivalLane="B4C4_0" arrivalPos="82.40" arrivalPosLat="0.00" arrivalSpeed="16.03" duration="52.50" routeLength="651.59" waitingTime="0.00" waitingCount="0" stopTime="0.00" timeLoss="9.93" rerouteNo="0" devices="tripinfo_42" vType="DEFAULT_VEHTYPE" speedFactor="1.16" vaporized=""/>
    <tripinfo id="50" depart="100.00" departLane="C1C2_0" departPos="5.10" departPosLat="0.00" departSpeed="0.00" departDelay="0.00" arrival="143.50" arrivalLane="D4E4_0" arrivalPos="86.40" arrivalPosLat="0.00" arrivalSpeed="12.61" duration="43.50" routeLength="472.73" waitingTime="0.00" waitingCount="0" stopTime="0.00" timeLoss="5.48" rerouteNo="0" devices="tripinfo_50" vType="DEFAULT_VEHTYPE" speedFactor="0.92" vaporized=""/>
    <tripinfo id="43" depart="85.90" departLane="E2D2_0" departPos="5.10" departPosLat="0.00" departSpeed="0.00" departDelay="-0.10" arrival="154.75" arrivalLane="D0D1_0" arrivalPos="82.40" arrivalPosLat="0.00" arrivalSpeed="14.09" duration="68.85" routeLength="736.00" waitingTime="0.00" waitingCount="0" stopTime="0.00" timeLoss="13.34" rerouteNo="0" devices="tripinfo_43" vType="DEFAULT_VEHTYPE" speedFactor="1.02" vaporized=""/>
    <tripinfo id="53" depart="109.45" departLane="C3C4_0" departPos="5.10" departPosLat="0.00" departSpeed="0.00" departDelay="3.45" arrival="155.35" arrivalLane="C3B3_0" arrivalPos="82.40" arrivalPosLat="0.00" arrivalSpeed="13.08" duration="45.90" routeLength="451.59" waitingTime="0.00" waitingCount="0" stopTime="0.00" timeLoss="9.33" rerouteNo="0" devices="tripinfo_53" vType="DEFAULT_VEHTYPE" speedFactor="0.95" vaporized=""/>
    <tripinfo id="59" depart="118.00" departLane="C3C2_0" departPos="5.10" departPosLat="0.00" departSpeed="0.00" departDelay="0.00" arrival="158.05" arrivalLane="B0A0_0" arrivalPos="86.40" arrivalPosLat="0.00" arrivalSpeed="13.91" duration="40.05" routeLength="472.73" waitingTime="0.00" waitingCount="0" stopTime="0.00" timeLoss="5.27" rerouteNo="0" devices="tripinfo_59" vType="DEFAULT_VEHTYPE" speedFactor="1.01" vaporized=""/>
    <tripinfo id="72" depart="143.95" departLane="E2D2_0" departPos="5.10" departPosLat="0.00" departSpeed="0.00" departDelay="-0.05" arrival="161.50" arrivalLane="D2C2_0" arrivalPos="82.40" arrivalPosLat="0.00" arrivalSpeed="14.24" duration="17.55" routeLength="177.30" waitingTime="0.00" waitingCount="0" stopTime="0.00" timeLoss="5.06" rerouteNo="0" devices="tripinfo_72" vType="DEFAULT_VEHTYPE" speedFactor="1.03" vaporized=""/>
    <tripinfo id="48" depart="95.95" departLane="D3C3_0" departPos="5.10" departPosLat="0.00" departSpeed="0.00" departDelay="-0.05" arrival="166.45" arrivalLane="D3D4_0" arrivalPos="82.40" arrivalPosLat="0.00" arrivalSpeed="11.36" duration="70.50" routeLength="636.00" waitingTime="0.00" waitingCount="0" stopTime="0.00" timeLoss="10.98" rerouteNo="0" devices="tripinfo_48" vType="DEFAULT_VEHTYPE" speedFactor="0.83" vaporized=""/>
    <tripinfo id="41" depart="82.00" departLane="D1D0_0" departPos="5.10" departPosLat="0.00" departSpeed="0.00" departDelay="0.00" arrival="171.70" arrivalLane="C3B3_0" arrivalPos="82.40" arrivalPosLat="0.00" arrivalSpeed="12.85" duration="89.70" routeLength="934.45" waitingTime="0.00" waitingCount="0" stopTime="0.00" timeLoss="13.75" rerouteNo="0" devices="tripinfo_41" vType="DEFAULT_VEHTYPE" speedFactor="0.94" vaporized=""/>
    <tripinfo id="71" depart="143.95" departLane="A3B3_0" departPos="5.10" departPosLat="0.00" departSpeed="0.00" departDelay="1.95" arrival="172.00" arrivalLane="C3C2_0" arrivalPos="82.40" arrivalPosLat="0.00" arrivalSpeed="12.42" duration="28.05" routeLength="268.73" waitingTime="0.00" waitingCount="0" stopTime="0.00" timeLoss="5.65" rerouteNo="0" devices="tripinfo_71" vType="DEFAULT_VEHTYPE" speedFactor="0.90" vaporized=""/>
    <tripinfo id="39" depart="77.95" departLane="B4B3_0" departPos="5.10" departPosLat="0.00" departSpeed="0.00" departDelay="-0.05" arrival="174.25" arrivalLane="E1D1_0" arrivalPos="82.40" arrivalPosLat="0.00" arrivalSpeed="12.99" duration="96.30" routeLength="1037.55" waitingTime="0.00" waitingCount="0" stopTime="0.00" timeLoss="13.83" rerouteNo="0" devices="tripinfo_39" vType="DEFAULT_VEHTYPE" speedFactor="0.94" vaporized=""/>
    <tripinfo id="45" depart="91.15" departLane="D0C0_0" departPos="5.10" departPosLat="0.00" departSpeed="0.00" departDelay="1.15" arrival="178.90" arrivalLane="D2D3_0" arrivalPos="82.40" arrivalPosLat="0.00" arrivalSpeed="13.89" duration="87.75" routeLength="836.00" waitingTime="6.90" waitingCount="1" stopTime="0.00" timeLoss="24.86" rerouteNo="0" devices="tripinfo_45" vType="DEFAULT_VEHTYPE" speedFactor="1.01" vaporized=""/>
    <tripinfo id="78" depart="157.45" departLane="C1C2_0" departPos="5.10" departPosLat="0.00" departSpeed="0.00" departDelay="1.45" arrival="180.10" arrivalLane="C3C4_0" arrivalPos="82.40" arrivalPosLat="0.00" arrivalSpeed="14.30" duration="22.65" routeLength="277.30" waitingTime="0.00" waitingCount="0" stopTime="0.00" timeLoss="3.41" rerouteNo="0" devices="tripinfo_78" vType="DEFAULT_VEHTYPE" speedFactor="1.04" vaporized=""/>
    <tripinfo id="60" depart="119.95" departLane="C3B3_0" departPos="5.10" departPosLat="0.00" departSpeed="0.00" departDelay="-0.05" arrival="183.10" arrivalLane="B1A1_0" arrivalPos="82.40" arrivalPosLat="0.00" arrivalSpeed="16.10" duration="63.15" routeLength="744.57" waitingTime="0.00" waitingCount="0" stopTime="0.00" timeLoss="15.13" rerouteNo="0" devices="tripinfo_60" vType="DEFAULT_VEHTYPE" speedFactor="1.17" vaporized=""/>
    <tripinfo id="56" depart="112.00" departLane="A3A4_0" departPos="5.10" departPosLat="0.00" departSpeed="0.00" departDelay="0.00" arrival="189.55" arrivalLane="A2B2_0" arrivalPos="82.40" arrivalPosLat="0.00" arrivalSpeed="12.90" duration="77.55" routeLength="736.00" waitingTime="3.00" waitingCount="1" stopTime="0.00" timeLoss="16.96" rerouteNo="0" devices="tripinfo_56" vType="DEFAULT_VEHTYPE" speedFactor="0.93" vaporized=""/>
    <tripinfo id="93" depart="185.95" departLane="B4C4_0" departPos="5.10" departPosLat="0.00" departSpeed="0.00" departDelay="-0.05" arrival="194.95" arrivalLane="B4C4_0" arrivalPos="82.40" arrivalPosLat="0.00" arrivalSpeed="13.93" duration="9.00" routeLength="77.30" waitingTime="0.00" waitingCount="0" stopTime="0.00" timeLoss="3.36" rerouteNo="0" devices="tripinfo_93" vType="DEFAULT_VEHTYPE" speedFactor="1.00" vaporized=""/>
    <tripinfo id="47" depart="94.45" departLane="E1E0_0" departPos="5.10" departPosLat="0.00" departSpeed="0.00" departDelay="0.45" arrival="195.10" arrivalLane="B2A2_0" arrivalPos="82.40" arrivalPosLat="0.00" arrivalSpeed="12.20" duration="100.65" routeLength="1037.55" waitingTime="0.00" waitingCount="0" stopTime="0.00" timeLoss="13.20" rerouteNo="0" devices="tripinfo_47" vType="DEFAULT_VEHTYPE" speedFactor="0.89" vaporized=""/>
    <tripinfo id="54" depart="107.95" departLane="B1B0_0" departPos="5.10" departPosLat="0.00" departSpeed="0.00" departDelay="-0.05" arrival="195.85" arrivalLane="E4E3_0" arrivalPos="86.40" arrivalPosLat="0.00" arrivalSpeed="15.03" duration="87.90" routeLength="1047.67" waitingTime="0.00" waitingCount="0" stopTime="0.00" timeLoss="19.25" rerouteNo="0" devices="tripinfo_54" vType="DEFAULT_VEHTYPE" speedFactor="1.13" vaporized=""/>
    <tripinfo id="70" depart="139.90" departLane="E1D1_0" departPos="5.10" departPosLat="0.00" departSpeed="0.00" departDelay="-0.10" arrival="197.05" arrivalLane="A3A4_0" arrivalPos="86.40" arrivalPosLat="0.00" arrivalSpeed="15.15" duration="57.15" routeLength="672.73" waitingTime="0.00" waitingCount="0" stopTime="0.00" timeLoss="12.38" rerouteNo="0" devices="tripinfo_70" vType="DEFAULT_VEHTYPE" speedFactor="1.10" vaporized=""/>
    <tripinfo id="90" depart="179.95" departLane="E4D4_0" departPos="5.10" departPosLat="0.00" departSpeed="0.00" departDelay="-0.05" arrival="202.15" arrivalLane="C4B4_0" arrivalPos="82.40" arrivalPosLat="0.00" arrivalSpeed="15.11" duration="22.20" routeLength="281.30" waitingTime="0.00" waitingCount="0" stopTime="0.00" timeLoss="3.70" rerouteNo="0" devices="tripinfo_90" vType="DEFAULT_VEHTYPE" speedFactor="1.10" vaporized=""/>
    <tripinfo id="57" depart="114.70" departLane="B0B1_0" departPos="5.10" departPosLat="0.00" departSpeed="0.00" departDelay="0.70" arrival="204.25" arrivalLane="B4B3_0" arrivalPos="82.40" arrivalPosLat="0.00" arrivalSpeed="16.29" duration="89.55" routeLength="1028.98" waitingTime="2.10" waitingCount="1" stopTime="0.00" timeLoss="23.51" rerouteNo="0" devices="tripinfo_57" vType="DEFAULT_VEHTYPE" speedFactor="1.18" vaporized=""/>
    <tripinfo id="58" depart="115.90" departLane="E3D3_0" departPos="5.10" departPosLat="0.00" departSpeed="0.00" departDelay="-0.10" arrival="204.40" arrivalLane="B2B3_0" arrivalPos="82.40" arrivalPosLat="0.00" arrivalSpeed="16.01" duration="88.50" routeLength="836.00" waitingTime="2.10" waitingCount="3" stopTime="0.00" timeLoss="33.44" rerouteNo="0" devices="tripinfo_58" vType="DEFAULT_VEHTYPE" speedFactor="1.15" vaporized=""/>
    <tripinfo id="76" depart="151.90" departLane="C0B0_0" departPos="5.10" departPosLat="0.00" departSpeed="0.00" departDelay="-0.10" arrival="204.40" arrivalLane="E1E0_0" arrivalPos="86.40" arrivalPosLat="0.00" arrivalSpeed="14.41" duration="52.50" routeLength="555.59" waitingTime="0.00" waitingCount="0" stopTime="0.00" timeLoss="11.75" rerouteNo="0" devices="tripinfo_76" vType="DEFAULT_VEHTYPE" speedFactor="1.04" vaporized=""/>
    <tripinfo id="89" depart="178.00" departLane="A0A1_0" departPos="5.10" departPosLat="0.00" departSpeed="0.00" departDelay="0.00" arrival="205.30" arrivalLane="B1B0_0" arrivalPos="82.40" arrivalPosLat="0.00" arrivalSpeed="13.94" duration="27.30" routeLength="264.16" waitingTime="0.00" waitingCount="0" stopTime="0.00" timeLoss="7.04" rerouteNo="0" devices="tripinfo_89" vType="DEFAULT_VEHTYPE" speedFactor="1.02" vaporized=""/>
    <tripinfo id="84" depart="167.95" departLane="E2D2_0" departPos="5.10" departPosLat="0.00" departSpeed="0.00" departDelay="-0.05" arrival="206.50" arrivalLane="C3C4_0" arrivalPos="82.40" arrivalPosLat="0.00" arrivalSpeed="12.17" duration="38.55" routeLength="368.73" waitingTime="0.00" waitingCount="0" stopTime="0.00" timeLoss="7.39" rerouteNo="0" devices="tripinfo_84" vType="DEFAULT_VEHTYPE" speedFactor="0.88" vaporized=""/>
    <tripinfo id="66" depart="131.95" departLane="C1D1_0" departPos="5.10" departPosLat="0.00" departSpeed="0.00" departDelay="-0.05" arrival="208.60" arrivalLane="C1B1_0" arrivalPos="82.40" arrivalPosLat="0.00" arrivalSpeed="14.11" duration="76.65" routeLength="825.88" waitingTime="0.00" waitingCount="0" stopTime="0.00" timeLoss="13.90" rerouteNo="0" devices="tripinfo_66" vType="DEFAULT_VEHTYPE" speedFactor="1.02" vaporized=""/>
    <tripinfo id="64" depart="127.90" departLane="A1A2_0" departPos="5.10" departPosLat="0.00" departSpeed="0.00" departDelay="-0.10" arrival="210.85" arrivalLane="D3D4_0" arrivalPos="82.40" arrivalPosLat="0.00" arrivalSpeed="13.79" duration="82.95" routeLength="946.12" waitingTime="0.00" waitingCount="0" stopTime="0.00" timeLoss="12.13" rerouteNo="0" devices="tripinfo_64" vType="DEFAULT_VEHTYPE" speedFactor="0.99" vaporized=""/>
    <tripinfo id="68" depart="136.00" departLane="B1B2_0" departPos="5.10" departPosLat="0.00" departSpeed="0.00" departDelay="0.00" arrival="212.05" arrivalLane="A3B3_0" arrivalPos="82.40" arrivalPosLat="0.00" arrivalSpeed="13.41" duration="76.05" routeLength="734.45" waitingTime="1.95" waitingCount="1" stopTime="0.00" timeLoss="18.10" rerouteNo="0" devices="tripinfo_68" vType="DEFAULT_VEHTYPE" speedFactor="0.97" vaporized=""/>
    <tripinfo id="75" depart="149.95" departLane="C2D2_0" departPos="5.10" departPosLat="0.00" departSpeed="0.00" departDelay="-0.05" arrival="216.55" arrivalLane="E3E2_0" arrivalPos="82.40" arrivalPosLat="0.00" arrivalSpeed="15.01" duration="66.60" routeLength="734.45" waitingTime="0.00" waitingCount="0" stopTime="0.00" timeLoss="14.78" rerouteNo="0" devices="tripinfo_75" vType="DEFAULT_VEHTYPE" speedFactor="1.09" vaporized=""/>
    <tripinfo id="74" depart="148.00" departLane="C2B2_0" departPos="5.10" departPosLat="0.00" departSpeed="0.00" departDelay="0.00" arrival="218.50" arrivalLane="C3C4_0" arrivalPos="82.40" arrivalPosLat="0.00" arrivalSpeed="13.24" duration="70.50" routeLength="734.45" waitingTime="0.00" waitingCount="0" stopTime="0.00" timeLoss="11.38" rerouteNo="0" devices="tripinfo_74" vType="DEFAULT_VEHTYPE" speedFactor="0.96" vaporized=""/>
    <tripinfo id="69" depart="137.95" departLane="E2E1_0" departPos="5.10" departPosLat="0.00" departSpeed="0.00" departDelay="-0.05" arrival="221.95" arrivalLane="A4B4_0" arrivalPos="86.40" arrivalPosLat="0.00" arrivalSpeed="16.24" duration="84.00" routeLength="853.14" waitingTime="0.00" waitingCount="0" stopTime="0.00" timeLoss="30.35" rerouteNo="0" devices="tripinfo_69" vType="DEFAULT_VEHTYPE" speedFactor="1.18" vaporized=""/>
    <tripinfo id="83" depart="168.55" departLane="B3B4_0" departPos="5.10" departPosLat="0.00" departSpeed="0.00" departDelay="2.55" arrival="223.75" arrivalLane="B2A2_0" arrivalPos="82.40" arrivalPosLat="0.00" arrivalSpeed="12.46" duration="55.20" routeLength="551.59" waitingTime="0.00" waitingCount="0" stopTime="0.00" timeLoss="8.63" rerouteNo="0" devices="tripinfo_83" vType="DEFAULT_VEHTYPE" speedFactor="0.90" vaporized=""/>
    <tripinfo id="81" depart="161.95" departLane="D1C1_0" departPos="5.10" departPosLat="0.00" departSpeed="0.00" departDelay="-0.05" arrival="226.00" arrivalLane="A4B4_0" arrivalPos="86.40" arrivalPosLat="0.00" arrivalSpeed="13.78" duration="64.05" routeLength="661.71" waitingTime="0.00" waitingCount="0" stopTime="0.00" timeLoss="14.90" rerouteNo="0" devices="tripinfo_81" vType="DEFAULT_VEHTYPE" speedFactor="1.00" vaporized=""/>
    <tripinfo id="88" depart="175.90" departLane="E2D2_0" departPos="5.10" departPosLat="0.00" departSpeed="0.00" departDelay="-0.10" arrival="243.70" arrivalLane="C0B0_0" arrivalPos="82.40" arrivalPosLat="0.00" arrivalSpeed="16.07" duration="67.80" routeLength="844.57" waitingTime="0.00" waitingCount="0" stopTime="0.00" timeLoss="13.52" rerouteNo="0" devices="tripinfo_88" vType="DEFAULT_VEHTYPE" speedFactor="1.17" vaporized=""/>
    <tripinfo id="94" depart="187.90" departLane="C3C2_0" departPos="5.10" departPosLat="0.00" departSpeed="0.00" departDelay="-0.10" arrival="248.20" arrivalLane="D2E2_0" arrivalPos="82.40" arrivalPosLat="0.00" arrivalSpeed="13.83" duration="60.30" routeLength="651.59" waitingTime="0.00" waitingCount="0" stopTime="0.00" timeLoss="10.80" rerouteNo="0" devices="tripinfo_94" vType="DEFAULT_VEHTYPE" speedFactor="1.00" vaporized=""/>
    <tripinfo id="80" depart="160.00" departLane="C3C2_0" departPos="5.10" departPosLat="0.00" departSpeed="0.00" departDelay="0.00" arrival="249.70" arrivalLane="D1D2_0" arrivalPos="82.40" arrivalPosLat="0.00" arrivalSpeed="14.99" duration="89.70" routeLength="925.88" waitingTime="2.25" waitingCount="1" stopTime="0.00" timeLoss="24.41" rerouteNo="0" devices="tripinfo_80" vType="DEFAULT_VEHTYPE" speedFactor="1.09" vaporized=""/>
    <tripinfo id="100" depart="199.90" departLane="D0C0_0" departPos="5.10" departPosLat="0.00" departSpeed="0.00" departDelay="-0.10" arrival="257.95" arrivalLane="E1D1_0" arrivalPos="82.40" arrivalPosLat="0.00" arrivalSpeed="15.01" duration="58.05" routeLength="643.02" waitingTime="0.00" waitingCount="0" stopTime="0.00" timeLoss="12.53" rerouteNo="0" devices="tripinfo_100" vType="DEFAULT_VEHTYPE" speedFactor="1.08" vaporized=""/>
    <tripinfo id="104" depart="208.75" departLane="C2B2_0" departPos="5.10" departPosLat="0.00" departSpeed="0.00" departDelay="0.75" arrival="260.65" arrivalLane="D2D1_0" arrivalPos="82.40" arrivalPosLat="0.00" arrivalSpeed="13.95" duration="51.90" routeLength="551.59" waitingTime="0.00" waitingCount="0" stopTime="0.00" timeLoss="10.47" rerouteNo="0" devices="tripinfo_104" vType="DEFAULT_VEHTYPE" speedFactor="1.02" vaporized=""/>
    <tripinfo id="97" depart="193.90" departLane="D1D0_0" departPos="5.10" departPosLat="0.00" departSpeed="0.00" departDelay="-0.10" arrival="261.10" arrivalLane="D4D3_0" arrivalPos="82.40" arrivalPosLat="0.00" arrivalSpeed="14.10" duration="67.20" routeLength="743.02" waitingTime="0.00" waitingCount="0" stopTime="0.00" timeLoss="12.09" rerouteNo="0" devices="tripinfo_97" vType="DEFAULT_VEHTYPE" speedFactor="1.02" vaporized=""/>
    <tripinfo id="85" depart="169.90" departLane="B2C2_0" departPos="5.10" departPosLat="0.00" departSpeed="0.00" departDelay="-0.10" arrival="265.15" arrivalLane="D3C3_0" arrivalPos="82.40" arrivalPosLat="0.00" arrivalSpeed="11.68" duration="95.25" routeLength="925.88" waitingTime="0.00" waitingCount="0" stopTime="0.00" timeLoss="11.66" rerouteNo="0" devices="tripinfo_85" vType="DEFAULT_VEHTYPE" speedFactor="0.85" vaporized=""/>
    <tripinfo id="98" depart="196.00" departLane="E2E1_0" departPos="5.10" departPosLat="0.00" departSpeed="0.00" departDelay="0.00" arrival="265.15" arrivalLane="C1C0_0" arrivalPos="82.40" arrivalPosLat="0.00" arrivalSpeed="13.35" duration="69.15" routeLength="744.57" waitingTime="0.00" waitingCount="0" stopTime="0.00" timeLoss="11.14" rerouteNo="0" devices="tripinfo_98" vType="DEFAULT_VEHTYPE" speedFactor="0.97" vaporized=""/>
    <tripinfo id="86" depart="172.00" departLane="B1B0_0" departPos="5.10" departPosLat="0.00" departSpeed="0.00" departDelay="0.00" arrival="266.65" arrivalLane="C3B3_0" arrivalPos="82.40" arrivalPosLat="0.00" arrivalSpeed="11.82" duration="94.65" routeLength="937.55" waitingTime="0.00" waitingCount="0" stopTime="0.00" timeLoss="12.03" rerouteNo="0" devices="tripinfo_86" vType="DEFAULT_VEHTYPE" speedFactor="0.85" vaporized=""/>
    <tripinfo id="106" depart="211.90" departLane="C0B0_0" departPos="5.10" departPosLat="0.00" departSpeed="0.00" departDelay="-0.10" arrival="268.00" arrivalLane="B2B1_0" arrivalPos="82.40" arrivalPosLat="0.00" arrivalSpeed="13.52" duration="56.10" routeLength="553.14" waitingTime="1.65" waitingCount="1" stopTime="0.00" timeLoss="13.73" rerouteNo="0" devices="tripinfo_106" vType="DEFAULT_VEHTYPE" speedFactor="0.99" vaporized=""/>
    <tripinfo id="120" depart="242.05" departLane="C4D4_0" departPos="5.10" departPosLat="0.00" departSpeed="0.00" departDelay="2.05" arrival="268.75" arrivalLane="E4E3_0" arrivalPos="86.40" arrivalPosLat="0.00" arrivalSpeed="13.11" duration="26.70" routeLength="270.28" waitingTime="0.00" waitingCount="0" stopTime="0.00" timeLoss="5.71" rerouteNo="0" devices="tripinfo_120" vType="DEFAULT_VEHTYPE" speedFactor="0.96" vaporized=""/>
    <tripinfo id="96" depart="191.95" departLane="B0A0_0" departPos="5.10" departPosLat="0.00" departSpeed="0.00" departDelay="-0.05" arrival="271.60" arrivalLane="D0D1_0" arrivalPos="82.40" arrivalPosLat="0.00" arrivalSpeed="12.05" duration="79.65" routeLength="837.55" waitingTime="0.00" waitingCount="0" stopTime="0.00" timeLoss="24.35" rerouteNo="0" devices="tripinfo_96" vType="DEFAULT_VEHTYPE" speedFactor="1.14" vaporized=""/>
    <tripinfo id="112" depart="223.90" departLane="A3B3_0" departPos="5.10" departPosLat="0.00" departSpeed="0.00" departDelay="-0.10" arrival="276.10" arrivalLane="A4B4_0" arrivalPos="86.40" arrivalPosLat="0.00" arrivalSpeed="14.37" duration="52.20" routeLength="544.57" waitingTime="0.00" waitingCount="0" stopTime="0.00" timeLoss="11.88" rerouteNo="0" devices="tripinfo_112" vType="DEFAULT_VEHTYPE" speedFactor="1.04" vaporized=""/>
    <tripinfo id="111" depart="221.95" departLane="B2A2_0" departPos="5.10" departPosLat="0.00" departSpeed="0.00" departDelay="-0.05" arrival="277.90" arrivalLane="B3A3_0" arrivalPos="82.40" arrivalPosLat="0.00" arrivalSpeed="12.62" duration="55.95" routeLength="544.57" waitingTime="0.00" waitingCount="0" stopTime="0.00" timeLoss="10.18" rerouteNo="0" devices="tripinfo_111" vType="DEFAULT_VEHTYPE" speedFactor="0.91" vaporized=""/>
    <tripinfo id="95" depart="190.00" departLane="A2B2_0" departPos="5.10" departPosLat="0.00" departSpeed="0.00" departDelay="0.00" arrival="278.35" arrivalLane="D1E1_0" arrivalPos="82.40" arrivalPosLat="0.00" arrivalSpeed="12.29" duration="88.35" routeLength="844.57" waitingTime="0.00" waitingCount="0" stopTime="0.00" timeLoss="17.63" rerouteNo="0" devices="tripinfo_95" vType="DEFAULT_VEHTYPE" speedFactor="0.90" vaporized=""/>