<?xml version="1.0" encoding="UTF-8"?>

<!-- generated on Sun  2 Feb 19:08:17 2020 by Eclipse SUMO GUI Version 1.2.0
<configuration xmlns:xsi="http://www.w3.org/2001/XMLSchema-instance" xsi:noNamespaceSchemaLocation="http://sumo.dlr.de/xsd/sumoConfiguration.xsd">

    <input>
        <net-file value="/Users/jamie/Documents/University/Third%20Year/Project/GitHub/Sandbox/Concepts/Concept%202/Pre%20Full%20Implementation%20Tests/TraCI/net.net.xml"/>
        <route-files value="/Users/jamie/Documents/University/Third%20Year/Project/GitHub/Sandbox/Concepts/Concept%202/Pre%20Full%20Implementation%20Tests/TraCI/routes25car.rou.xml"/>
    </input>

    <output>
        <write-license value="true"/>
        <human-readable-time value="true"/>
        <summary-output value="/Users/jamie/Documents/University/Third%20Year/Project/GitHub/Sandbox/Concepts/Concept%202/Pre%20Full%20Implementation%20Tests/TraCI/results/summaryOutput25car.txt"/>
        <tripinfo-output value="/Users/jamie/Documents/University/Third%20Year/Project/GitHub/Sandbox/Concepts/Concept%202/Pre%20Full%20Implementation%20Tests/TraCI/results/tripInfo25car.txt"/>
    </output>

    <time>
        <begin value="0"/>
        <step-length value="0.05"/>
    </time>

    <processing>
        <route-steps value="250"/>
    </processing>

    <report>
        <verbose value="true"/>
        <duration-log.statistics value="true"/>
        <no-step-log value="true"/>
    </report>

    <gui_only>
        <gui-settings-file value="/Users/jamie/Documents/University/Third%20Year/Project/GitHub/Sandbox/Concepts/Concept%202/Pre%20Full%20Implementation%20Tests/TraCI/settings.settings.xml"/>
        <quit-on-end value="false"/>
        <start value="false"/>
        <tracker-interval value="0.05"/>
    </gui_only>

</configuration>
-->

<summary xmlns:xsi="http://www.w3.org/2001/XMLSchema-instance" xsi:noNamespaceSchemaLocation="http://sumo.dlr.de/xsd/summary_file.xsd">
    <step time="00:00:00.00" loaded="2" inserted="1" running="1" waiting="0" ended="0" arrived="0" collisions="0" teleports="0" halting="1" meanWaitingTime="0.00" meanTravelTime="-1.00" meanSpeed="0.00" meanSpeedRelative="0.00" duration="1580670499565"/>
    <step time="00:00:00.05" loaded="2" inserted="1" running="1" waiting="0" ended="0" arrived="0" collisions="0" teleports="0" halting="1" meanWaitingTime="0.00" meanTravelTime="-1.00" meanSpeed="0.06" meanSpeedRelative="0.00" duration="1580670499576"/>
    <step time="00:00:00.10" loaded="2" inserted="1" running="1" waiting="0" ended="0" arrived="0" collisions="0" teleports="0" halting="0" meanWaitingTime="0.00" meanTravelTime="-1.00" meanSpeed="0.13" meanSpeedRelative="0.01" duration="1580670499579"/>
    <step time="00:00:00.15" loaded="2" inserted="1" running="1" waiting="0" ended="0" arrived="0" collisions="0" teleports="0" halting="0" meanWaitingTime="0.00" meanTravelTime="-1.00" meanSpeed="0.19" meanSpeedRelative="0.01" duration="1580670499581"/>
    <step time="00:00:00.20" loaded="2" inserted="1" running="1" waiting="0" ended="0" arrived="0" collisions="0" teleports="0" halting="0" meanWaitingTime="0.00" meanTravelTime="-1.00" meanSpeed="0.26" meanSpeedRelative="0.02" duration="1580670499583"/>
    <step time="00:00:00.25" loaded="2" inserted="1" running="1" waiting="0" ended="0" arrived="0" collisions="0" teleports="0" halting="0" meanWaitingTime="0.00" meanTravelTime="-1.00" meanSpeed="0.32" meanSpeedRelative="0.02" duration="1580670499585"/>
    <step time="00:00:00.30" loaded="2" inserted="1" running="1" waiting="0" ended="0" arrived="0" collisions="0" teleports="0" halting="0" meanWaitingTime="0.00" meanTravelTime="-1.00" meanSpeed="0.38" meanSpeedRelative="0.03" duration="1580670499588"/>
    <step time="00:00:00.35" loaded="2" inserted="1" running="1" waiting="0" ended="0" arrived="0" collisions="0" teleports="0" halting="0" meanWaitingTime="0.00" meanTravelTime="-1.00" meanSpeed="0.44" meanSpeedRelative="0.03" duration="1580670499590"/>
    <step time="00:00:00.40" loaded="2" inserted="1" running="1" waiting="0" ended="0" arrived="0" collisions="0" teleports="0" halting="0" meanWaitingTime="0.00" meanTravelTime="-1.00" meanSpeed="0.49" meanSpeedRelative="0.04" duration="1580670499592"/>
    <step time="00:00:00.45" loaded="2" inserted="1" running="1" waiting="0" ended="0" arrived="0" collisions="0" teleports="0" halting="0" meanWaitingTime="0.00" meanTravelTime="-1.00" meanSpeed="0.55" meanSpeedRelative="0.04" duration="1580670499595"/>
    <step time="00:00:00.50" loaded="2" inserted="1" running="1" waiting="0" ended="0" arrived="0" collisions="0" teleports="0" halting="0" meanWaitingTime="0.00" meanTravelTime="-1.00" meanSpeed="0.62" meanSpeedRelative="0.04" duration="1580670499597"/>
    <step time="00:00:00.55" loaded="2" inserted="1" running="1" waiting="0" ended="0" arrived="0" collisions="0" teleports="0" halting="0" meanWaitingTime="0.00" meanTravelTime="-1.00" meanSpeed="0.67" meanSpeedRelative="0.05" duration="1580670499599"/>
    <step time="00:00:00.60" loaded="2" inserted="1" running="1" waiting="0" ended="0" arrived="0" collisions="0" teleports="0" halting="0" meanWaitingTime="0.00" meanTravelTime="-1.00" meanSpeed="0.73" meanSpeedRelative="0.05" duration="1580670499602"/>
    <step time="00:00:00.65" loaded="2" inserted="1" running="1" waiting="0" ended="0" arrived="0" collisions="0" teleports="0" halting="0" meanWaitingTime="0.00" meanTravelTime="-1.00" meanSpeed="0.78" meanSpeedRelative="0.06" duration="1580670499605"/>
    <step time="00:00:00.70" loaded="2" inserted="1" running="1" waiting="0" ended="0" arrived="0" collisions="0" teleports="0" halting="0" meanWaitingTime="0.00" meanTravelTime="-1.00" meanSpeed="0.82" meanSpeedRelative="0.06" duration="1580670499607"/>
    <step time="00:00:00.75" loaded="2" inserted="1" running="1" waiting="0" ended="0" arrived="0" collisions="0" teleports="0" halting="0" meanWaitingTime="0.00" meanTravelTime="-1.00" meanSpeed="0.88" meanSpeedRelative="0.06" duration="1580670499610"/>
    <step time="00:00:00.80" loaded="2" inserted="1" running="1" waiting="0" ended="0" arrived="0" collisions="0" teleports="0" halting="0" meanWaitingTime="0.00" meanTravelTime="-1.00" meanSpeed="0.93" meanSpeedRelative="0.07" duration="1580670499612"/>
    <step time="00:00:00.85" loaded="2" inserted="1" running="1" waiting="0" ended="0" arrived="0" collisions="0" teleports="0" halting="0" meanWaitingTime="0.00" meanTravelTime="-1.00" meanSpeed="0.99" meanSpeedRelative="0.07" duration="1580670499614"/>
    <step time="00:00:00.90" loaded="2" inserted="1" running="1" waiting="0" ended="0" arrived="0" collisions="0" teleports="0" halting="0" meanWaitingTime="0.00" meanTravelTime="-1.00" meanSpeed="1.05" meanSpeedRelative="0.08" duration="1580670499617"/>
    <step time="00:00:00.95" loaded="2" inserted="1" running="1" waiting="0" ended="0" arrived="0" collisions="0" teleports="0" halting="0" meanWaitingTime="0.00" meanTravelTime="-1.00" meanSpeed="1.11" meanSpeedRelative="0.08" duration="1580670499619"/>
    <step time="00:00:01.00" loaded="25" inserted="2" running="2" waiting="0" ended="0" arrived="0" collisions="0" teleports="0" halting="1" meanWaitingTime="0.00" meanTravelTime="-1.00" meanSpeed="0.58" meanSpeedRelative="0.04" duration="1580670499622"/>
    <step time="00:00:01.05" loaded="25" inserted="2" running="2" waiting="0" ended="0" arrived="0" collisions="0" teleports="0" halting="1" meanWaitingTime="0.00" meanTravelTime="-1.00" meanSpeed="0.64" meanSpeedRelative="0.05" duration="1580670499626"/>
    <step time="00:00:01.10" loaded="25" inserted="2" running="2" waiting="0" ended="0" arrived="0" collisions="0" teleports="0" halting="0" meanWaitingTime="0.00" meanTravelTime="-1.00" meanSpeed="0.70" meanSpeedRelative="0.05" duration="1580670499628"/>
    <step time="00:00:01.15" loaded="25" inserted="2" running="2" waiting="0" ended="0" arrived="0" collisions="0" teleports="0" halting="0" meanWaitingTime="0.00" meanTravelTime="-1.00" meanSpeed="0.76" meanSpeedRelative="0.05" duration="1580670499630"/>
    <step time="00:00:01.20" loaded="25" inserted="2" running="2" waiting="0" ended="0" arrived="0" collisions="0" teleports="0" halting="0" meanWaitingTime="0.00" meanTravelTime="-1.00" meanSpeed="0.82" meanSpeedRelative="0.06" duration="1580670499632"/>
    <step time="00:00:01.25" loaded="25" inserted="2" running="2" waiting="0" ended="0" arrived="0" collisions="0" teleports="0" halting="0" meanWaitingTime="0.00" meanTravelTime="-1.00" meanSpeed="0.87" meanSpeedRelative="0.06" duration="1580670499635"/>
    <step time="00:00:01.30" loaded="25" inserted="2" running="2" waiting="0" ended="0" arrived="0" collisions="0" teleports="0" halting="0" meanWaitingTime="0.00" meanTravelTime="-1.00" meanSpeed="0.92" meanSpeedRelative="0.07" duration="1580670499638"/>
    <step time="00:00:01.35" loaded="25" inserted="2" running="2" waiting="0" ended="0" arrived="0" collisions="0" teleports="0" halting="0" meanWaitingTime="0.00" meanTravelTime="-1.00" meanSpeed="0.98" meanSpeedRelative="0.07" duration="1580670499640"/>
    <step time="00:00:01.40" loaded="25" inserted="2" running="2" waiting="0" ended="0" arrived="0" collisions="0" teleports="0" halting="0" meanWaitingTime="0.00" meanTravelTime="-1.00" meanSpeed="1.04" meanSpeedRelative="0.07" duration="1580670499642"/>
    <step time="00:00:01.45" loaded="25" inserted="2" running="2" waiting="0" ended="0" arrived="0" collisions="0" teleports="0" halting="0" meanWaitingTime="0.00" meanTravelTime="-1.00" meanSpeed="1.09" meanSpeedRelative="0.08" duration="1580670499644"/>
    <step time="00:00:01.50" loaded="25" inserted="2" running="2" waiting="0" ended="0" arrived="0" collisions="0" teleports="0" halting="0" meanWaitingTime="0.00" meanTravelTime="-1.00" meanSpeed="1.14" meanSpeedRelative="0.08" duration="1580670499646"/>
    <step time="00:00:01.55" loaded="25" inserted="2" running="2" waiting="0" ended="0" arrived="0" collisions="0" teleports="0" halting="0" meanWaitingTime="0.00" meanTravelTime="-1.00" meanSpeed="1.20" meanSpeedRelative="0.09" duration="1580670499648"/>
    <step time="00:00:01.60" loaded="25" inserted="2" running="2" waiting="0" ended="0" arrived="0" collisions="0" teleports="0" halting="0" meanWaitingTime="0.00" meanTravelTime="-1.00" meanSpeed="1.26" meanSpeedRelative="0.09" duration="1580670499651"/>
    <step time="00:00:01.65" loaded="25" inserted="2" running="2" waiting="0" ended="0" arrived="0" collisions="0" teleports="0" halting="0" meanWaitingTime="0.00" meanTravelTime="-1.00" meanSpeed="1.31" meanSpeedRelative="0.09" duration="1580670499654"/>
    <step time="00:00:01.70" loaded="25" inserted="2" running="2" waiting="0" ended="0" arrived="0" collisions="0" teleports="0" halting="0" meanWaitingTime="0.00" meanTravelTime="-1.00" meanSpeed="1.36" meanSpeedRelative="0.10" duration="1580670499656"/>
    <step time="00:00:01.75" loaded="25" inserted="2" running="2" waiting="0" ended="0" arrived="0" collisions="0" teleports="0" halting="0" meanWaitingTime="0.00" meanTravelTime="-1.00" meanSpeed="1.42" meanSpeedRelative="0.10" duration="1580670499658"/>
    <step time="00:00:01.80" loaded="25" inserted="2" running="2" waiting="0" ended="0" arrived="0" collisions="0" teleports="0" halting="0" meanWaitingTime="0.00" meanTravelTime="-1.00" meanSpeed="1.47" meanSpeedRelative="0.11" duration="1580670499660"/>
    <step time="00:00:01.85" loaded="25" inserted="2" running="2" waiting="0" ended="0" arrived="0" collisions="0" teleports="0" halting="0" meanWaitingTime="0.00" meanTravelTime="-1.00" meanSpeed="1.52" meanSpeedRelative="0.11" duration="1580670499662"/>
    <step time="00:00:01.90" loaded="25" inserted="2" running="2" waiting="0" ended="0" arrived="0" collisions="0" teleports="0" halting="0" meanWaitingTime="0.00" meanTravelTime="-1.00" meanSpeed="1.57" meanSpeedRelative="0.11" duration="1580670499665"/>
    <step time="00:00:01.95" loaded="25" inserted="2" running="2" waiting="0" ended="0" arrived="0" collisions="0" teleports="0" halting="0" meanWaitingTime="0.00" meanTravelTime="-1.00" meanSpeed="1.63" meanSpeedRelative="0.12" duration="1580670499667"/>
    <step time="00:00:02.00" loaded="25" inserted="3" running="3" waiting="0" ended="0" arrived="0" collisions="0" teleports="0" halting="1" meanWaitingTime="0.00" meanTravelTime="-1.00" meanSpeed="1.12" meanSpeedRelative="0.08" duration="1580670499669"/>
    <step time="00:00:02.05" loaded="25" inserted="3" running="3" waiting="0" ended="0" arrived="0" collisions="0" teleports="0" halting="1" meanWaitingTime="0.00" meanTravelTime="-1.00" meanSpeed="1.18" meanSpeedRelative="0.08" duration="1580670499671"/>
    <step time="00:00:02.10" loaded="25" inserted="3" running="3" waiting="0" ended="0" arrived="0" collisions="0" teleports="0" halting="0" meanWaitingTime="0.00" meanTravelTime="-1.00" meanSpeed="1.23" meanSpeedRelative="0.09" duration="1580670499673"/>
    <step time="00:00:02.15" loaded="25" inserted="3" running="3" waiting="0" ended="0" arrived="0" collisions="0" teleports="0" halting="0" meanWaitingTime="0.00" meanTravelTime="-1.00" meanSpeed="1.29" meanSpeedRelative="0.09" duration="1580670499675"/>
    <step time="00:00:02.20" loaded="25" inserted="3" running="3" waiting="0" ended="0" arrived="0" collisions="0" teleports="0" halting="0" meanWaitingTime="0.00" meanTravelTime="-1.00" meanSpeed="1.34" meanSpeedRelative="0.10" duration="1580670499678"/>
    <step time="00:00:02.25" loaded="25" inserted="3" running="3" waiting="0" ended="0" arrived="0" collisions="0" teleports="0" halting="0" meanWaitingTime="0.00" meanTravelTime="-1.00" meanSpeed="1.39" meanSpeedRelative="0.10" duration="1580670499680"/>
    <step time="00:00:02.30" loaded="25" inserted="3" running="3" waiting="0" ended="0" arrived="0" collisions="0" teleports="0" halting="0" meanWaitingTime="0.00" meanTravelTime="-1.00" meanSpeed="1.44" meanSpeedRelative="0.10" duration="1580670499682"/>
    <step time="00:00:02.35" loaded="25" inserted="3" running="3" waiting="0" ended="0" arrived="0" collisions="0" teleports="0" halting="0" meanWaitingTime="0.00" meanTravelTime="-1.00" meanSpeed="1.49" meanSpeedRelative="0.11" duration="1580670499684"/>
    <step time="00:00:02.40" loaded="25" inserted="3" running="3" waiting="0" ended="0" arrived="0" collisions="0" teleports="0" halting="0" meanWaitingTime="0.00" meanTravelTime="-1.00" meanSpeed="1.55" meanSpeedRelative="0.11" duration="1580670499686"/>
    <step time="00:00:02.45" loaded="25" inserted="3" running="3" waiting="0" ended="0" arrived="0" collisions="0" teleports="0" halting="0" meanWaitingTime="0.00" meanTravelTime="-1.00" meanSpeed="1.60" meanSpeedRelative="0.11" duration="1580670499689"/>
    <step time="00:00:02.50" loaded="25" inserted="3" running="3" waiting="0" ended="0" arrived="0" collisions="0" teleports="0" halting="0" meanWaitingTime="0.00" meanTravelTime="-1.00" meanSpeed="1.65" meanSpeedRelative="0.12" duration="1580670499692"/>
    <step time="00:00:02.55" loaded="25" inserted="3" running="3" waiting="0" ended="0" arrived="0" collisions="0" teleports="0" halting="0" meanWaitingTime="0.00" meanTravelTime="-1.00" meanSpeed="1.70" meanSpeedRelative="0.12" duration="1580670499694"/>
    <step time="00:00:02.60" loaded="25" inserted="3" running="3" waiting="0" ended="0" arrived="0" collisions="0" teleports="0" halting="0" meanWaitingTime="0.00" meanTravelTime="-1.00" meanSpeed="1.75" meanSpeedRelative="0.13" duration="1580670499696"/>
    <step time="00:00:02.65" loaded="25" inserted="3" running="3" waiting="0" ended="0" arrived="0" collisions="0" teleports="0" halting="0" meanWaitingTime="0.00" meanTravelTime="-1.00" meanSpeed="1.81" meanSpeedRelative="0.13" duration="1580670499698"/>
    <step time="00:00:02.70" loaded="25" inserted="3" running="3" waiting="0" ended="0" arrived="0" collisions="0" teleports="0" halting="0" meanWaitingTime="0.00" meanTravelTime="-1.00" meanSpeed="1.87" meanSpeedRelative="0.13" duration="1580670499700"/>
    <step time="00:00:02.75" loaded="25" inserted="3" running="3" waiting="0" ended="0" arrived="0" collisions="0" teleports="0" halting="0" meanWaitingTime="0.00" meanTravelTime="-1.00" meanSpeed="1.91" meanSpeedRelative="0.14" duration="1580670499702"/>
    <step time="00:00:02.80" loaded="25" inserted="3" running="3" waiting="0" ended="0" arrived="0" collisions="0" teleports="0" halting="0" meanWaitingTime="0.00" meanTravelTime="-1.00" meanSpeed="1.96" meanSpeedRelative="0.14" duration="1580670499704"/>
    <step time="00:00:02.85" loaded="25" inserted="3" running="3" waiting="0" ended="0" arrived="0" collisions="0" teleports="0" halting="0" meanWaitingTime="0.00" meanTravelTime="-1.00" meanSpeed="2.01" meanSpeedRelative="0.14" duration="1580670499707"/>
    <step time="00:00:02.90" loaded="25" inserted="3" running="3" waiting="0" ended="0" arrived="0" collisions="0" teleports="0" halting="0" meanWaitingTime="0.00" meanTravelTime="-1.00" meanSpeed="2.06" meanSpeedRelative="0.15" duration="1580670499710"/>
    <step time="00:00:02.95" loaded="25" inserted="3" running="3" waiting="0" ended="0" arrived="0" collisions="0" teleports="0" halting="0" meanWaitingTime="0.00" meanTravelTime="-1.00" meanSpeed="2.11" meanSpeedRelative="0.15" duration="1580670499712"/>
    <step time="00:00:03.00" loaded="25" inserted="4" running="4" waiting="0" ended="0" arrived="0" collisions="0" teleports="0" halting="1" meanWaitingTime="0.00" meanTravelTime="-1.00" meanSpeed="1.61" meanSpeedRelative="0.12" duration="1580670499715"/>
    <step time="00:00:03.05" loaded="25" inserted="4" running="4" waiting="0" ended="0" arrived="0" collisions="0" teleports="0" halting="1" meanWaitingTime="0.00" meanTravelTime="-1.00" meanSpeed="1.67" meanSpeedRelative="0.12" duration="1580670499718"/>
    <step time="00:00:03.10" loaded="25" inserted="4" running="4" waiting="0" ended="0" arrived="0" collisions="0" teleports="0" halting="0" meanWaitingTime="0.00" meanTravelTime="-1.00" meanSpeed="1.73" meanSpeedRelative="0.12" duration="1580670499720"/>
    <step time="00:00:03.15" loaded="25" inserted="4" running="4" waiting="0" ended="0" arrived="0" collisions="0" teleports="0" halting="0" meanWaitingTime="0.00" meanTravelTime="-1.00" meanSpeed="1.78" meanSpeedRelative="0.13" duration="1580670499722"/>
    <step time="00:00:03.20" loaded="25" inserted="4" running="4" waiting="0" ended="0" arrived="0" collisions="0" teleports="0" halting="0" meanWaitingTime="0.00" meanTravelTime="-1.00" meanSpeed="1.83" meanSpeedRelative="0.13" duration="1580670499725"/>
    <step time="00:00:03.25" loaded="25" inserted="4" running="4" waiting="0" ended="0" arrived="0" collisions="0" teleports="0" halting="0" meanWaitingTime="0.00" meanTravelTime="-1.00" meanSpeed="1.88" meanSpeedRelative="0.14" duration="1580670499727"/>
    <step time="00:00:03.30" loaded="25" inserted="4" running="4" waiting="0" ended="0" arrived="0" collisions="0" teleports="0" halting="0" meanWaitingTime="0.00" meanTravelTime="-1.00" meanSpeed="1.94" meanSpeedRelative="0.14" duration="1580670499729"/>
    <step time="00:00:03.35" loaded="25" inserted="4" running="4" waiting="0" ended="0" arrived="0" collisions="0" teleports="0" halting="0" meanWaitingTime="0.00" meanTravelTime="-1.00" meanSpeed="1.99" meanSpeedRelative="0.14" duration="1580670499732"/>
    <step time="00:00:03.40" loaded="25" inserted="4" running="4" waiting="0" ended="0" arrived="0" collisions="0" teleports="0" halting="0" meanWaitingTime="0.00" meanTravelTime="-1.00" meanSpeed="2.03" meanSpeedRelative="0.15" duration="1580670499735"/>
    <step time="00:00:03.45" loaded="25" inserted="4" running="4" waiting="0" ended="0" arrived="0" collisions="0" teleports="0" halting="0" meanWaitingTime="0.00" meanTravelTime="-1.00" meanSpeed="2.08" meanSpeedRelative="0.15" duration="1580670499737"/>
    <step time="00:00:03.50" loaded="25" inserted="4" running="4" waiting="0" ended="0" arrived="0" collisions="0" teleports="0" halting="0" meanWaitingTime="0.00" meanTravelTime="-1.00" meanSpeed="2.13" meanSpeedRelative="0.15" duration="1580670499739"/>
    <step time="00:00:03.55" loaded="25" inserted="4" running="4" waiting="0" ended="0" arrived="0" collisions="0" teleports="0" halting="0" meanWaitingTime="0.00" meanTravelTime="-1.00" meanSpeed="2.19" meanSpeedRelative="0.16" duration="1580670499741"/>
    <step time="00:00:03.60" loaded="25" inserted="4" running="4" waiting="0" ended="0" arrived="0" collisions="0" teleports="0" halting="0" meanWaitingTime="0.00" meanTravelTime="-1.00" meanSpeed="2.24" meanSpeedRelative="0.16" duration="1580670499743"/>
    <step time="00:00:03.65" loaded="25" inserted="4" running="4" waiting="0" ended="0" arrived="0" collisions="0" teleports="0" halting="0" meanWaitingTime="0.00" meanTravelTime="-1.00" meanSpeed="2.29" meanSpeedRelative="0.17" duration="1580670499746"/>
    <step time="00:00:03.70" loaded="25" inserted="4" running="4" waiting="0" ended="0" arrived="0" collisions="0" teleports="0" halting="0" meanWaitingTime="0.00" meanTravelTime="-1.00" meanSpeed="2.35" meanSpeedRelative="0.17" duration="1580670499749"/>
    <step time="00:00:03.75" loaded="25" inserted="4" running="4" waiting="0" ended="0" arrived="0" collisions="0" teleports="0" halting="0" meanWaitingTime="0.00" meanTravelTime="-1.00" meanSpeed="2.40" meanSpeedRelative="0.17" duration="1580670499751"/>
    <step time="00:00:03.80" loaded="25" inserted="4" running="4" waiting="0" ended="0" arrived="0" collisions="0" teleports="0" halting="0" meanWaitingTime="0.00" meanTravelTime="-1.00" meanSpeed="2.45" meanSpeedRelative="0.18" duration="1580670499753"/>
    <step time="00:00:03.85" loaded="25" inserted="4" running="4" waiting="0" ended="0" arrived="0" collisions="0" teleports="0" halting="0" meanWaitingTime="0.00" meanTravelTime="-1.00" meanSpeed="2.50" meanSpeedRelative="0.18" duration="1580670499756"/>
    <step time="00:00:03.90" loaded="25" inserted="4" running="4" waiting="0" ended="0" arrived="0" collisions="0" teleports="0" halting="0" meanWaitingTime="0.00" meanTravelTime="-1.00" meanSpeed="2.54" meanSpeedRelative="0.18" duration="1580670499759"/>
    <step time="00:00:03.95" loaded="25" inserted="4" running="4" waiting="0" ended="0" arrived="0" collisions="0" teleports="0" halting="0" meanWaitingTime="0.00" meanTravelTime="-1.00" meanSpeed="2.59" meanSpeedRelative="0.19" duration="1580670499761"/>
    <step time="00:00:04.00" loaded="25" inserted="5" running="5" waiting="0" ended="0" arrived="0" collisions="0" teleports="0" halting="1" meanWaitingTime="0.00" meanTravelTime="-1.00" meanSpeed="2.11" meanSpeedRelative="0.15" duration="1580670499763"/>
    <step time="00:00:04.05" loaded="25" inserted="5" running="5" waiting="0" ended="0" arrived="0" collisions="0" teleports="0" halting="1" meanWaitingTime="0.00" meanTravelTime="-1.00" meanSpeed="2.17" meanSpeedRelative="0.16" duration="1580670499766"/>
    <step time="00:00:04.10" loaded="25" inserted="5" running="5" waiting="0" ended="0" arrived="0" collisions="0" teleports="0" halting="0" meanWaitingTime="0.00" meanTravelTime="-1.00" meanSpeed="2.22" meanSpeedRelative="0.16" duration="1580670499767"/>
    <step time="00:00:04.15" loaded="25" inserted="5" running="5" waiting="0" ended="0" arrived="0" collisions="0" teleports="0" halting="0" meanWaitingTime="0.00" meanTravelTime="-1.00" meanSpeed="2.27" meanSpeedRelative="0.16" duration="1580670499770"/>
    <step time="00:00:04.20" loaded="25" inserted="5" running="5" waiting="0" ended="0" arrived="0" collisions="0" teleports="0" halting="0" meanWaitingTime="0.00" meanTravelTime="-1.00" meanSpeed="2.33" meanSpeedRelative="0.17" duration="1580670499773"/>
    <step time="00:00:04.25" loaded="25" inserted="5" running="5" waiting="0" ended="0" arrived="0" collisions="0" teleports="0" halting="0" meanWaitingTime="0.00" meanTravelTime="-1.00" meanSpeed="2.38" meanSpeedRelative="0.17" duration="1580670499776"/>
    <step time="00:00:04.30" loaded="25" inserted="5" running="5" waiting="0" ended="0" arrived="0" collisions="0" teleports="0" halting="0" meanWaitingTime="0.00" meanTravelTime="-1.00" meanSpeed="2.43" meanSpeedRelative="0.17" duration="1580670499779"/>
    <step time="00:00:04.35" loaded="25" inserted="5" running="5" waiting="0" ended="0" arrived="0" collisions="0" teleports="0" halting="0" meanWaitingTime="0.00" meanTravelTime="-1.00" meanSpeed="2.48" meanSpeedRelative="0.18" duration="1580670499781"/>
    <step time="00:00:04.40" loaded="25" inserted="5" running="5" waiting="0" ended="0" arrived="0" collisions="0" teleports="0" halting="0" meanWaitingTime="0.00" meanTravelTime="-1.00" meanSpeed="2.53" meanSpeedRelative="0.18" duration="1580670499783"/>
    <step time="00:00:04.45" loaded="25" inserted="5" running="5" waiting="0" ended="0" arrived="0" collisions="0" teleports="0" halting="0" meanWaitingTime="0.00" meanTravelTime="-1.00" meanSpeed="2.58" meanSpeedRelative="0.19" duration="1580670499786"/>
    <step time="00:00:04.50" loaded="25" inserted="5" running="5" waiting="0" ended="0" arrived="0" collisions="0" teleports="0" halting="0" meanWaitingTime="0.00" meanTravelTime="-1.00" meanSpeed="2.63" meanSpeedRelative="0.19" duration="1580670499789"/>
    <step time="00:00:04.55" loaded="25" inserted="5" running="5" waiting="0" ended="0" arrived="0" collisions="0" teleports="0" halting="0" meanWaitingTime="0.00" meanTravelTime="-1.00" meanSpeed="2.69" meanSpeedRelative="0.19" duration="1580670499791"/>
    <step time="00:00:04.60" loaded="25" inserted="5" running="5" waiting="0" ended="0" arrived="0" collisions="0" teleports="0" halting="0" meanWaitingTime="0.00" meanTravelTime="-1.00" meanSpeed="2.75" meanSpeedRelative="0.20" duration="1580670499794"/>
    <step time="00:00:04.65" loaded="25" inserted="5" running="5" waiting="0" ended="0" arrived="0" collisions="0" teleports="0" halting="0" meanWaitingTime="0.00" meanTravelTime="-1.00" meanSpeed="2.80" meanSpeedRelative="0.20" duration="1580670499796"/>
    <step time="00:00:04.70" loaded="25" inserted="5" running="5" waiting="0" ended="0" arrived="0" collisions="0" teleports="0" halting="0" meanWaitingTime="0.00" meanTravelTime="-1.00" meanSpeed="2.85" meanSpeedRelative="0.21" duration="1580670499798"/>
    <step time="00:00:04.75" loaded="25" inserted="5" running="5" waiting="0" ended="0" arrived="0" collisions="0" teleports="0" halting="0" meanWaitingTime="0.00" meanTravelTime="-1.00" meanSpeed="2.91" meanSpeedRelative="0.21" duration="1580670499801"/>
    <step time="00:00:04.80" loaded="25" inserted="5" running="5" waiting="0" ended="0" arrived="0" collisions="0" teleports="0" halting="0" meanWaitingTime="0.00" meanTravelTime="-1.00" meanSpeed="2.95" meanSpeedRelative="0.21" duration="1580670499804"/>
    <step time="00:00:04.85" loaded="25" inserted="5" running="5" waiting="0" ended="0" arrived="0" collisions="0" teleports="0" halting="0" meanWaitingTime="0.00" meanTravelTime="-1.00" meanSpeed="2.99" meanSpeedRelative="0.22" duration="1580670499806"/>
    <step time="00:00:04.90" loaded="25" inserted="5" running="5" waiting="0" ended="0" arrived="0" collisions="0" teleports="0" halting="0" meanWaitingTime="0.00" meanTravelTime="-1.00" meanSpeed="3.05" meanSpeedRelative="0.22" duration="1580670499808"/>
    <step time="00:00:04.95" loaded="25" inserted="5" running="5" waiting="0" ended="0" arrived="0" collisions="0" teleports="0" halting="0" meanWaitingTime="0.00" meanTravelTime="-1.00" meanSpeed="3.10" meanSpeedRelative="0.22" duration="1580670499811"/>
    <step time="00:00:05.00" loaded="25" inserted="6" running="6" waiting="0" ended="0" arrived="0" collisions="0" teleports="0" halting="1" meanWaitingTime="0.00" meanTravelTime="-1.00" meanSpeed="2.63" meanSpeedRelative="0.19" duration="1580670499814"/>
    <step time="00:00:05.05" loaded="25" inserted="6" running="6" waiting="0" ended="0" arrived="0" collisions="0" teleports="0" halting="1" meanWaitingTime="0.00" meanTravelTime="-1.00" meanSpeed="2.69" meanSpeedRelative="0.19" duration="1580670499816"/>
    <step time="00:00:05.10" loaded="25" inserted="6" running="6" waiting="0" ended="0" arrived="0" collisions="0" teleports="0" halting="0" meanWaitingTime="0.00" meanTravelTime="-1.00" meanSpeed="2.74" meanSpeedRelative="0.20" duration="1580670499818"/>
    <step time="00:00:05.15" loaded="25" inserted="6" running="6" waiting="0" ended="0" arrived="0" collisions="0" teleports="0" halting="0" meanWaitingTime="0.00" meanTravelTime="-1.00" meanSpeed="2.78" meanSpeedRelative="0.20" duration="1580670499820"/>
    <step time="00:00:05.20" loaded="25" inserted="6" running="6" waiting="0" ended="0" arrived="0" collisions="0" teleports="0" halting="0" meanWaitingTime="0.00" meanTravelTime="-1.00" meanSpeed="2.83" meanSpeedRelative="0.20" duration="1580670499822"/>
    <step time="00:00:05.25" loaded="25" inserted="6" running="6" waiting="0" ended="0" arrived="0" collisions="0" teleports="0" halting="0" meanWaitingTime="0.00" meanTravelTime="-1.00" meanSpeed="2.88" meanSpeedRelative="0.21" duration="1580670499825"/>
    <step time="00:00:05.30" loaded="25" inserted="6" running="6" waiting="0" ended="0" arrived="0" collisions="0" teleports="0" halting="0" meanWaitingTime="0.00" meanTravelTime="-1.00" meanSpeed="2.94" meanSpeedRelative="0.21" duration="1580670499827"/>
    <step time="00:00:05.35" loaded="25" inserted="6" running="6" waiting="0" ended="0" arrived="0" collisions="0" teleports="0" halting="0" meanWaitingTime="0.00" meanTravelTime="-1.00" meanSpeed="2.98" meanSpeedRelative="0.21" duration="1580670499829"/>
    <step time="00:00:05.40" loaded="25" inserted="6" running="6" waiting="0" ended="0" arrived="0" collisions="0" teleports="0" halting="0" meanWaitingTime="0.00" meanTravelTime="-1.00" meanSpeed="3.03" meanSpeedRelative="0.22" duration="1580670499831"/>