<?xml version="1.0" encoding="UTF-8"?>

<!-- generated on Sun  2 Feb 19:08:17 2020 by Eclipse SUMO GUI Version 1.2.0
<configuration xmlns:xsi="http://www.w3.org/2001/XMLSchema-instance" xsi:noNamespaceSchemaLocation="http://sumo.dlr.de/xsd/sumoConfiguration.xsd">

    <input>
        <net-file value="/Users/jamie/Documents/University/Third%20Year/Project/GitHub/Sandbox/Concepts/Concept%202/Pre%20Full%20Implementation%20Tests/TraCI/net.net.xml"/>
        <route-files value="/Users/jamie/Documents/University/Third%20Year/Project/GitHub/Sandbox/Concepts/Concept%202/Pre%20Full%20Implementation%20Tests/TraCI/routes25car.rou.xml"/>
    </input>

    <output>
        <write-license value="true"/>
        <human-readable-time value="true"/>
        <summary-output value="/Users/jamie/Documents/University/Third%20Year/Project/GitHub/Sandbox/Concepts/Concept%202/Pre%20Full%20Implementation%20Tests/TraCI/results/summaryOutput25car.txt"/>
        <tripinfo-output value="/Users/jamie/Documents/University/Third%20Year/Project/GitHub/Sandbox/Concepts/Concept%202/Pre%20Full%20Implementation%20Tests/TraCI/results/tripInfo25car.txt"/>
    </output>

    <time>
        <begin value="0"/>
        <step-length value="0.05"/>
    </time>

    <processing>
        <route-steps value="250"/>
    </processing>

    <report>
        <verbose value="true"/>
        <duration-log.statistics value="true"/>
        <no-step-log value="true"/>
    </report>

    <gui_only>
        <gui-settings-file value="/Users/jamie/Documents/University/Third%20Year/Project/GitHub/Sandbox/Concepts/Concept%202/Pre%20Full%20Implementation%20Tests/TraCI/settings.settings.xml"/>
        <quit-on-end value="false"/>
        <start value="false"/>
        <tracker-interval value="0.05"/>
    </gui_only>

</configuration>
-->

<tripinfos xmlns:xsi="http://www.w3.org/2001/XMLSchema-instance" xsi:noNamespaceSchemaLocation="http://sumo.dlr.de/xsd/tripinfo_file.xsd">
    <tripinfo id="1" depart="00:00:01.00" departLane="E2D2_0" departPos="5.10" departSpeed="0.00" departDelay="00:00:00.00" arrival="00:00:24.60" arrivalLane="D2E2_1" arrivalPos="79.20" arrivalSpeed="12.87" duration="00:00:23.60" routeLength="157.97" waitingTime="00:00:00.05" waitingCount="1" stopTime="00:00:00.00" timeLoss="00:00:11.77" rerouteNo="0" devices="tripinfo_1" vType="type1" speedFactor="1.04" vaporized=""/>
    <tripinfo id="11" depart="00:00:11.00" departLane="A2A3_0" departPos="5.10" departSpeed="0.00" departDelay="00:00:00.00" arrival="00:00:37.55" arrivalLane="A4B4_0" arrivalPos="83.20" arrivalSpeed="12.87" duration="00:00:26.55" routeLength="263.88" waitingTime="00:00:00.00" waitingCount="0" stopTime="00:00:00.00" timeLoss="00:00:05.54" rerouteNo="0" devices="tripinfo_11" vType="type2" speedFactor="0.93" vaporized=""/>
    <tripinfo id="7" depart="00:00:07.00" departLane="C2D2_0" departPos="5.10" departSpeed="0.00" departDelay="00:00:00.00" arrival="00:00:38.40" arrivalLane="D1D0_0" arrivalPos="79.20" arrivalSpeed="14.50" duration="00:00:31.40" routeLength="262.33" waitingTime="00:00:00.05" waitingCount="1" stopTime="00:00:00.00" timeLoss="00:00:12.63" rerouteNo="0" devices="tripinfo_7" vType="type1" speedFactor="1.05" vaporized=""/>
    <tripinfo id="12" depart="00:00:12.00" departLane="B3B4_0" departPos="5.10" departSpeed="0.00" departDelay="00:00:00.00" arrival="00:00:43.35" arrivalLane="C4C3_0" arrivalPos="79.20" arrivalSpeed="14.03" duration="00:00:31.35" routeLength="250.56" waitingTime="00:00:00.05" waitingCount="1" stopTime="00:00:00.00" timeLoss="00:00:12.22" rerouteNo="0" devices="tripinfo_12" vType="type1" speedFactor="1.02" vaporized=""/>
    <tripinfo id="3" depart="00:00:03.00" departLane="C3C2_0" departPos="5.10" departSpeed="0.00" departDelay="00:00:00.00" arrival="00:00:44.10" arrivalLane="B3A3_1" arrivalPos="79.20" arrivalSpeed="14.19" duration="00:00:41.10" routeLength="349.12" waitingTime="00:00:00.05" waitingCount="1" stopTime="00:00:00.00" timeLoss="00:00:14.34" rerouteNo="0" devices="tripinfo_3" vType="type1" speedFactor="1.02" vaporized=""/>
    <tripinfo id="5" depart="00:00:05.00" departLane="B2C2_0" departPos="5.10" departSpeed="0.00" departDelay="00:00:00.00" arrival="00:00:44.50" arrivalLane="D1D0_0" arrivalPos="79.20" arrivalSpeed="13.44" duration="00:00:39.50" routeLength="362.33" waitingTime="00:00:00.05" waitingCount="1" stopTime="00:00:00.00" timeLoss="00:00:11.81" rerouteNo="0" devices="tripinfo_5" vType="type1" speedFactor="0.97" vaporized=""/>
    <tripinfo id="24" depart="00:00:24.00" departLane="D1E1_0" departPos="5.10" departSpeed="0.00" departDelay="00:00:00.00" arrival="00:00:45.80" arrivalLane="E1E0_0" arrivalPos="83.20" arrivalSpeed="14.39" duration="00:00:21.80" routeLength="166.33" waitingTime="00:00:00.05" waitingCount="1" stopTime="00:00:00.00" timeLoss="00:00:09.82" rerouteNo="0" devices="tripinfo_24" vType="type1" speedFactor="1.06" vaporized=""/>
    <tripinfo id="4" depart="00:00:04.00" departLane="C4B4_0" departPos="5.10" departSpeed="0.00" departDelay="00:00:00.00" arrival="00:00:49.20" arrivalLane="B1A1_0" arrivalPos="79.20" arrivalSpeed="14.12" duration="00:00:45.20" routeLength="460.89" waitingTime="00:00:00.05" waitingCount="1" stopTime="00:00:00.00" timeLoss="00:00:11.86" rerouteNo="0" devices="tripinfo_4" vType="type1" speedFactor="1.04" vaporized=""/>
    <tripinfo id="8" depart="00:00:08.00" departLane="B4B3_0" departPos="5.10" departSpeed="0.00" departDelay="00:00:00.00" arrival="00:00:54.90" arrivalLane="A2A1_1" arrivalPos="79.20" arrivalSpeed="13.34" duration="00:00:46.90" routeLength="360.88" waitingTime="00:00:02.15" waitingCount="2" stopTime="00:00:00.00" timeLoss="00:00:18.35" rerouteNo="0" devices="tripinfo_8" vType="type1" speedFactor="0.96" vaporized=""/>
    <tripinfo id="22" depart="00:00:22.00" departLane="C2D2_0" departPos="5.10" departSpeed="0.00" departDelay="00:00:00.00" arrival="00:00:56.10" arrivalLane="C2C3_0" arrivalPos="79.20" arrivalSpeed="13.13" duration="00:00:34.10" routeLength="246.20" waitingTime="00:00:00.05" waitingCount="1" stopTime="00:00:00.00" timeLoss="00:00:13.58" rerouteNo="0" devices="tripinfo_22" vType="type1" speedFactor="0.95" vaporized=""/>
    <tripinfo id="9" depart="00:00:09.00" departLane="A3A4_0" departPos="5.10" departSpeed="0.00" departDelay="00:00:00.00" arrival="00:00:57.65" arrivalLane="B2A2_0" arrivalPos="79.20" arrivalSpeed="14.03" duration="00:00:48.65" routeLength="440.34" waitingTime="00:00:00.05" waitingCount="1" stopTime="00:00:00.00" timeLoss="00:00:16.95" rerouteNo="0" devices="tripinfo_9" vType="type1" speedFactor="1.06" vaporized=""/>
    <tripinfo id="0" depart="00:00:00.00" departLane="B1B2_0" departPos="5.10" departSpeed="0.00" departDelay="00:00:00.00" arrival="00:01:02.85" arrivalLane="D0D1_1" arrivalPos="79.20" arrivalSpeed="12.78" duration="00:01:02.85" routeLength="534.43" waitingTime="00:00:00.05" waitingCount="1" stopTime="00:00:00.00" timeLoss="00:00:21.46" rerouteNo="0" devices="tripinfo_0" vType="type1" speedFactor="0.99" vaporized=""/>
    <tripinfo id="6" depart="00:00:06.00" departLane="C4D4_0" departPos="5.10" departSpeed="0.00" departDelay="00:00:00.00" arrival="00:01:04.80" arrivalLane="B3B4_0" arrivalPos="79.20" arrivalSpeed="13.89" duration="00:00:58.80" routeLength="438.79" waitingTime="00:00:02.05" waitingCount="2" stopTime="00:00:00.00" timeLoss="00:00:25.27" rerouteNo="0" devices="tripinfo_6" vType="type1" speedFactor="1.01" vaporized=""/>
    <tripinfo id="10" depart="00:00:10.00" departLane="A0B0_0" departPos="5.10" departSpeed="0.00" departDelay="00:00:00.00" arrival="00:01:05.30" arrivalLane="B4C4_0" arrivalPos="79.20" arrivalSpeed="13.17" duration="00:00:55.30" routeLength="564.89" waitingTime="00:00:00.05" waitingCount="1" stopTime="00:00:00.00" timeLoss="00:00:10.99" rerouteNo="0" devices="tripinfo_10" vType="type1" speedFactor="0.95" vaporized=""/>
    <tripinfo id="23" depart="00:00:23.00" departLane="C2C1_0" departPos="5.10" departSpeed="0.00" departDelay="00:00:00.00" arrival="00:01:05.65" arrivalLane="A1B1_1" arrivalPos="79.20" arrivalSpeed="13.12" duration="00:00:42.65" routeLength="346.20" waitingTime="00:00:00.05" waitingCount="1" stopTime="00:00:00.00" timeLoss="00:00:17.91" rerouteNo="0" devices="tripinfo_23" vType="type1" speedFactor="1.08" vaporized=""/>
    <tripinfo id="16" depart="00:00:16.00" departLane="C4B4_0" departPos="5.10" departSpeed="0.00" departDelay="00:00:00.00" arrival="00:01:06.15" arrivalLane="C2D2_1" arrivalPos="79.20" arrivalSpeed="14.07" duration="00:00:50.15" routeLength="444.77" waitingTime="00:00:00.05" waitingCount="1" stopTime="00:00:00.00" timeLoss="00:00:16.24" rerouteNo="0" devices="tripinfo_16" vType="type1" speedFactor="1.01" vaporized=""/>
    <tripinfo id="2" depart="00:00:02.00" departLane="B0A0_0" departPos="5.10" departSpeed="0.00" departDelay="00:00:00.00" arrival="00:01:07.05" arrivalLane="C3C2_0" arrivalPos="79.20" arrivalSpeed="14.23" duration="00:01:05.05" routeLength="640.34" waitingTime="00:00:00.05" waitingCount="1" stopTime="00:00:00.00" timeLoss="00:00:21.38" rerouteNo="0" devices="tripinfo_2" vType="type1" speedFactor="1.10" vaporized=""/>
    <tripinfo id="20" depart="00:00:20.00" departLane="C1C2_0" departPos="5.10" departSpeed="0.00" departDelay="00:00:00.00" arrival="00:01:09.35" arrivalLane="A3A4_0" arrivalPos="83.20" arrivalSpeed="14.09" duration="00:00:49.35" routeLength="464.89" waitingTime="00:00:00.05" waitingCount="1" stopTime="00:00:00.00" timeLoss="00:00:14.97" rerouteNo="0" devices="tripinfo_20" vType="type1" speedFactor="1.02" vaporized=""/>
    <tripinfo id="18" depart="00:00:19.00" departLane="D2D1_0" departPos="5.10" departSpeed="0.00" departDelay="00:00:01.00" arrival="00:01:09.45" arrivalLane="E3E2_0" arrivalPos="79.20" arrivalSpeed="13.92" duration="00:00:50.45" routeLength="434.44" waitingTime="00:00:00.05" waitingCount="1" stopTime="00:00:00.00" timeLoss="00:00:16.93" rerouteNo="0" devices="tripinfo_18" vType="type1" speedFactor="1.00" vaporized=""/>
    <tripinfo id="19" depart="00:00:19.00" departLane="C4B4_0" departPos="5.10" departSpeed="0.00" departDelay="00:00:00.00" arrival="00:01:11.10" arrivalLane="C2D2_1" arrivalPos="79.20" arrivalSpeed="12.98" duration="00:00:52.10" routeLength="444.77" waitingTime="00:00:00.05" waitingCount="1" stopTime="00:00:00.00" timeLoss="00:00:15.32" rerouteNo="0" devices="tripinfo_19" vType="type1" speedFactor="0.94" vaporized=""/>
    <tripinfo id="15" depart="00:00:15.00" departLane="B4A4_0" departPos="5.10" departSpeed="0.00" departDelay="00:00:00.00" arrival="00:01:13.05" arrivalLane="C2C3_1" arrivalPos="79.20" arrivalSpeed="13.97" duration="00:00:58.05" routeLength="576.47" waitingTime="00:00:03.95" waitingCount="1" stopTime="00:00:00.00" timeLoss="00:00:15.17" rerouteNo="0" devices="tripinfo_15" vType="type2" speedFactor="1.01" vaporized=""/>
    <tripinfo id="14" depart="00:00:14.00" departLane="B0B1_0" departPos="5.10" departSpeed="0.00" departDelay="00:00:00.00" arrival="00:01:16.35" arrivalLane="E0D0_0" arrivalPos="83.20" arrivalSpeed="13.47" duration="00:01:02.35" routeLength="540.34" waitingTime="00:00:00.05" waitingCount="1" stopTime="00:00:00.00" timeLoss="00:00:23.13" rerouteNo="0" devices="tripinfo_14" vType="type1" speedFactor="1.04" vaporized=""/>
    <tripinfo id="17" depart="00:00:17.00" departLane="D0E0_0" departPos="5.10" departSpeed="0.00" departDelay="00:00:00.00" arrival="00:01:23.05" arrivalLane="A1B1_1" arrivalPos="79.20" arrivalSpeed="12.30" duration="00:01:06.05" routeLength="661.79" waitingTime="00:00:00.00" waitingCount="0" stopTime="00:00:00.00" timeLoss="00:00:10.22" rerouteNo="0" devices="tripinfo_17" vType="type2" speedFactor="0.89" vaporized=""/>
    <tripinfo id="21" depart="00:00:21.00" departLane="D3D4_0" departPos="5.10" departSpeed="0.00" departDelay="00:00:00.00" arrival="00:01:27.00" arrivalLane="B1B0_1" arrivalPos="79.20" arrivalSpeed="14.80" duration="00:01:06.00" routeLength="644.75" waitingTime="00:00:00.05" waitingCount="1" stopTime="00:00:00.00" timeLoss="00:00:20.22" rerouteNo="0" devices="tripinfo_21" vType="type1" speedFactor="1.07" vaporized=""/>
    <tripinfo id="13" depart="00:00:13.00" departLane="A4A3_0" departPos="5.10" departSpeed="0.00" departDelay="00:00:00.00" arrival="00:01:30.60" arrivalLane="E1E0_0" arrivalPos="83.20" arrivalSpeed="13.44" duration="00:01:17.60" routeLength="768.89" waitingTime="00:00:00.05" waitingCount="1" stopTime="00:00:00.00" timeLoss="00:00:18.94" rerouteNo="0" devices="tripinfo_13" vType="type1" speedFactor="0.97" vaporized=""/>
</tripinfos>
