<?xml version="1.0" encoding="UTF-8"?>

<!-- generated on Thu  6 Feb 20:35:36 2020 by Eclipse SUMO GUI Version 1.2.0
<configuration xmlns:xsi="http://www.w3.org/2001/XMLSchema-instance" xsi:noNamespaceSchemaLocation="http://sumo.dlr.de/xsd/sumoConfiguration.xsd">

    <input>
        <net-file value="/Users/jamie/Documents/University/Third%20Year/Project/GitHub/Sandbox/AdaptiveRoadRules/ARR1/Concept2(Workable)/FullImplementation/net.net.xml"/>
        <route-files value="/Users/jamie/Documents/University/Third%20Year/Project/GitHub/Sandbox/AdaptiveRoadRules/ARR1/Concept2(Workable)/FullImplementation/routes250car.rou.xml"/>
    </input>

    <output>
        <write-license value="true"/>
        <human-readable-time value="true"/>
        <summary-output value="/Users/jamie/Documents/University/Third%20Year/Project/GitHub/Sandbox/AdaptiveRoadRules/ARR1/Concept2(Workable)/FullImplementation/results/summaryOutput250car.txt"/>
        <tripinfo-output value="/Users/jamie/Documents/University/Third%20Year/Project/GitHub/Sandbox/AdaptiveRoadRules/ARR1/Concept2(Workable)/FullImplementation/results/tripInfo250car.txt"/>
    </output>

    <time>
        <begin value="0"/>
        <step-length value="0.05"/>
    </time>

    <processing>
        <route-steps value="250"/>
    </processing>

    <report>
        <verbose value="true"/>
        <duration-log.statistics value="true"/>
        <no-step-log value="true"/>
    </report>

    <gui_only>
        <gui-settings-file value="/Users/jamie/Documents/University/Third%20Year/Project/GitHub/Sandbox/AdaptiveRoadRules/ARR1/Concept2(Workable)/FullImplementation/settings.settings.xml"/>
        <start value="false"/>
        <tracker-interval value="0.05"/>
    </gui_only>

</configuration>
-->

<tripinfos xmlns:xsi="http://www.w3.org/2001/XMLSchema-instance" xsi:noNamespaceSchemaLocation="http://sumo.dlr.de/xsd/tripinfo_file.xsd">
    <tripinfo id="9" depart="00:00:09.00" departLane="B1C1_0" departPos="5.10" departSpeed="0.00" departDelay="00:00:00.00" arrival="00:00:33.50" arrivalLane="C1C2_0" arrivalPos="85.60" arrivalSpeed="11.90" duration="00:00:24.50" routeLength="180.29" waitingTime="00:00:02.10" waitingCount="1" stopTime="00:00:00.00" timeLoss="00:00:08.47" rerouteNo="0" devices="tripinfo_9" vType="DEFAULT_VEHTYPE" speedFactor="0.86" vaporized=""/>
    <tripinfo id="10" depart="00:00:10.00" departLane="E4D4_0" departPos="5.10" departSpeed="0.00" departDelay="00:00:00.00" arrival="00:00:36.80" arrivalLane="D3E3_0" arrivalPos="85.60" arrivalSpeed="15.13" duration="00:00:26.80" routeLength="284.08" waitingTime="00:00:00.00" waitingCount="0" stopTime="00:00:00.00" timeLoss="00:00:06.67" rerouteNo="0" devices="tripinfo_10" vType="DEFAULT_VEHTYPE" speedFactor="1.09" vaporized=""/>
    <tripinfo id="6" depart="00:00:06.00" departLane="C4B4_0" departPos="5.10" departSpeed="0.00" departDelay="00:00:00.00" arrival="00:00:39.15" arrivalLane="D4E4_0" arrivalPos="89.60" arrivalSpeed="14.47" duration="00:00:33.15" routeLength="374.78" waitingTime="00:00:00.00" waitingCount="0" stopTime="00:00:00.00" timeLoss="00:00:06.44" rerouteNo="0" devices="tripinfo_6" vType="DEFAULT_VEHTYPE" speedFactor="1.05" vaporized=""/>
    <tripinfo id="16" depart="00:00:16.00" departLane="B0B1_0" departPos="5.10" departSpeed="0.00" departDelay="00:00:00.00" arrival="00:00:45.65" arrivalLane="C1C0_0" arrivalPos="85.60" arrivalSpeed="12.19" duration="00:00:29.65" routeLength="269.76" waitingTime="00:00:00.00" waitingCount="0" stopTime="00:00:00.00" timeLoss="00:00:05.85" rerouteNo="0" devices="tripinfo_16" vType="DEFAULT_VEHTYPE" speedFactor="0.88" vaporized=""/>
    <tripinfo id="17" depart="00:00:17.00" departLane="D2D3_0" departPos="5.10" departSpeed="0.00" departDelay="00:00:00.00" arrival="00:00:46.45" arrivalLane="C3D3_0" arrivalPos="85.60" arrivalSpeed="13.05" duration="00:00:29.45" routeLength="270.56" waitingTime="00:00:00.00" waitingCount="0" stopTime="00:00:00.00" timeLoss="00:00:06.94" rerouteNo="0" devices="tripinfo_17" vType="DEFAULT_VEHTYPE" speedFactor="0.94" vaporized=""/>
    <tripinfo id="12" depart="00:00:12.00" departLane="C1C2_0" departPos="5.10" departSpeed="0.00" departDelay="00:00:00.00" arrival="00:00:47.55" arrivalLane="C4B4_0" arrivalPos="85.60" arrivalSpeed="14.54" duration="00:00:35.55" routeLength="380.29" waitingTime="00:00:00.00" waitingCount="0" stopTime="00:00:00.00" timeLoss="00:00:08.65" rerouteNo="0" devices="tripinfo_12" vType="DEFAULT_VEHTYPE" speedFactor="1.05" vaporized=""/>
    <tripinfo id="1" depart="00:00:02.60" departLane="E1D1_0" departPos="5.10" departSpeed="0.00" departDelay="00:00:01.60" arrival="00:00:48.95" arrivalLane="C3C2_0" arrivalPos="85.60" arrivalSpeed="13.01" duration="00:00:46.35" routeLength="465.41" waitingTime="00:00:00.00" waitingCount="0" stopTime="00:00:00.00" timeLoss="00:00:08.86" rerouteNo="0" devices="tripinfo_1" vType="DEFAULT_VEHTYPE" speedFactor="0.94" vaporized=""/>
    <tripinfo id="23" depart="00:00:23.00" departLane="C3B3_0" departPos="5.10" departSpeed="0.00" departDelay="00:00:00.00" arrival="00:00:52.65" arrivalLane="B4C4_0" arrivalPos="85.60" arrivalSpeed="12.30" duration="00:00:29.65" routeLength="269.76" waitingTime="00:00:00.00" waitingCount="0" stopTime="00:00:00.00" timeLoss="00:00:06.14" rerouteNo="0" devices="tripinfo_23" vType="DEFAULT_VEHTYPE" speedFactor="0.89" vaporized=""/>
    <tripinfo id="15" depart="00:00:15.00" departLane="D2E2_0" departPos="5.10" departSpeed="0.00" departDelay="00:00:00.00" arrival="00:00:52.85" arrivalLane="C2B2_0" arrivalPos="85.60" arrivalSpeed="12.82" duration="00:00:37.85" routeLength="370.77" waitingTime="00:00:00.00" waitingCount="0" stopTime="00:00:00.00" timeLoss="00:00:08.03" rerouteNo="0" devices="tripinfo_15" vType="DEFAULT_VEHTYPE" speedFactor="0.93" vaporized=""/>
    <tripinfo id="11" depart="00:00:11.00" departLane="C2D2_0" departPos="5.10" departSpeed="0.00" departDelay="00:00:00.00" arrival="00:00:54.50" arrivalLane="C0C1_0" arrivalPos="85.60" arrivalSpeed="14.23" duration="00:00:43.50" routeLength="464.39" waitingTime="00:00:00.00" waitingCount="0" stopTime="00:00:00.00" timeLoss="00:00:08.79" rerouteNo="0" devices="tripinfo_11" vType="DEFAULT_VEHTYPE" speedFactor="1.03" vaporized=""/>
    <tripinfo id="26" depart="00:00:26.00" departLane="C3C4_0" departPos="5.10" departSpeed="0.00" departDelay="00:00:00.00" arrival="00:00:54.95" arrivalLane="C3C2_0" arrivalPos="85.60" arrivalSpeed="12.71" duration="00:00:28.95" routeLength="270.77" waitingTime="00:00:00.00" waitingCount="0" stopTime="00:00:00.00" timeLoss="00:00:06.62" rerouteNo="0" devices="tripinfo_26" vType="DEFAULT_VEHTYPE" speedFactor="0.92" vaporized=""/>
    <tripinfo id="2" depart="00:00:02.00" departLane="E1E2_0" departPos="5.10" departSpeed="0.00" departDelay="00:00:00.00" arrival="00:00:55.25" arrivalLane="E4E3_0" arrivalPos="89.60" arrivalSpeed="14.00" duration="00:00:53.25" routeLength="568.30" waitingTime="00:00:00.00" waitingCount="0" stopTime="00:00:00.00" timeLoss="00:00:10.64" rerouteNo="0" devices="tripinfo_2" vType="DEFAULT_VEHTYPE" speedFactor="1.01" vaporized=""/>
    <tripinfo id="7" depart="00:00:07.00" departLane="B4A4_0" departPos="5.10" departSpeed="0.00" departDelay="00:00:00.00" arrival="00:00:56.80" arrivalLane="B4C4_0" arrivalPos="85.60" arrivalSpeed="12.27" duration="00:00:49.80" routeLength="468.30" waitingTime="00:00:00.00" waitingCount="0" stopTime="00:00:00.00" timeLoss="00:00:09.37" rerouteNo="0" devices="tripinfo_7" vType="DEFAULT_VEHTYPE" speedFactor="0.89" vaporized=""/>
    <tripinfo id="21" depart="00:00:21.00" departLane="D3C3_0" departPos="5.10" departSpeed="0.00" departDelay="00:00:00.00" arrival="00:00:56.85" arrivalLane="C1C2_0" arrivalPos="85.60" arrivalSpeed="13.99" duration="00:00:35.85" routeLength="370.57" waitingTime="00:00:00.00" waitingCount="0" stopTime="00:00:00.00" timeLoss="00:00:07.75" rerouteNo="0" devices="tripinfo_21" vType="DEFAULT_VEHTYPE" speedFactor="1.01" vaporized=""/>
    <tripinfo id="4" depart="00:00:04.00" departLane="C1C2_0" departPos="5.10" departSpeed="0.00" departDelay="00:00:00.00" arrival="00:00:57.50" arrivalLane="E0D0_0" arrivalPos="89.60" arrivalSpeed="14.30" duration="00:00:53.50" routeLength="565.94" waitingTime="00:00:00.00" waitingCount="0" stopTime="00:00:00.00" timeLoss="00:00:12.09" rerouteNo="0" devices="tripinfo_4" vType="DEFAULT_VEHTYPE" speedFactor="1.03" vaporized=""/>
    <tripinfo id="20" depart="00:00:20.00" departLane="B3B2_0" departPos="5.10" departSpeed="0.00" departDelay="00:00:00.00" arrival="00:00:57.60" arrivalLane="C3C2_0" arrivalPos="85.60" arrivalSpeed="14.10" duration="00:00:37.60" routeLength="360.04" waitingTime="00:00:00.00" waitingCount="0" stopTime="00:00:00.00" timeLoss="00:00:09.78" rerouteNo="0" devices="tripinfo_20" vType="DEFAULT_VEHTYPE" speedFactor="1.02" vaporized=""/>
    <tripinfo id="8" depart="00:00:08.00" departLane="E0E1_0" departPos="5.10" departSpeed="0.00" departDelay="00:00:00.00" arrival="00:00:58.55" arrivalLane="D4C4_0" arrivalPos="85.60" arrivalSpeed="13.00" duration="00:00:50.55" routeLength="585.84" waitingTime="00:00:00.00" waitingCount="0" stopTime="00:00:00.00" timeLoss="00:00:04.78" rerouteNo="0" devices="tripinfo_8" vType="DEFAULT_VEHTYPE" speedFactor="0.94" vaporized=""/>
    <tripinfo id="22" depart="00:00:22.00" departLane="C0D0_0" departPos="5.10" departSpeed="0.00" departDelay="00:00:00.00" arrival="00:01:00.10" arrivalLane="C1B1_0" arrivalPos="85.60" arrivalSpeed="13.51" duration="00:00:38.10" routeLength="365.20" waitingTime="00:00:00.00" waitingCount="0" stopTime="00:00:00.00" timeLoss="00:00:08.63" rerouteNo="0" devices="tripinfo_22" vType="DEFAULT_VEHTYPE" speedFactor="0.98" vaporized=""/>
    <tripinfo id="0" depart="00:00:00.00" departLane="E1D1_0" departPos="5.10" departSpeed="0.00" departDelay="00:00:00.00" arrival="00:01:02.55" arrivalLane="A3A4_0" arrivalPos="89.60" arrivalSpeed="14.72" duration="00:01:02.55" routeLength="679.13" waitingTime="00:00:00.00" waitingCount="0" stopTime="00:00:00.00" timeLoss="00:00:15.73" rerouteNo="0" devices="tripinfo_0" vType="DEFAULT_VEHTYPE" speedFactor="1.06" vaporized=""/>
    <tripinfo id="34" depart="00:00:34.00" departLane="D3D4_0" departPos="5.10" departSpeed="0.00" departDelay="00:00:00.00" arrival="00:01:02.70" arrivalLane="E4E3_0" arrivalPos="89.60" arrivalSpeed="13.78" duration="00:00:28.70" routeLength="271.31" waitingTime="00:00:00.00" waitingCount="0" stopTime="00:00:00.00" timeLoss="00:00:07.86" rerouteNo="0" devices="tripinfo_34" vType="DEFAULT_VEHTYPE" speedFactor="0.99" vaporized=""/>
    <tripinfo id="5" depart="00:00:05.00" departLane="E4D4_0" departPos="5.10" departSpeed="0.00" departDelay="00:00:00.00" arrival="00:01:04.20" arrivalLane="E1E0_0" arrivalPos="89.60" arrivalSpeed="11.53" duration="00:00:59.20" routeLength="574.96" waitingTime="00:00:00.00" waitingCount="0" stopTime="00:00:00.00" timeLoss="00:00:07.63" rerouteNo="0" devices="tripinfo_5" vType="DEFAULT_VEHTYPE" speedFactor="0.83" vaporized=""/>
    <tripinfo id="19" depart="00:00:19.00" departLane="A2B2_0" departPos="5.10" departSpeed="0.00" departDelay="00:00:00.00" arrival="00:01:04.40" arrivalLane="D2D1_0" arrivalPos="85.60" arrivalSpeed="16.07" duration="00:00:45.40" routeLength="375.13" waitingTime="00:00:04.55" waitingCount="2" stopTime="00:00:00.00" timeLoss="00:00:21.43" rerouteNo="0" devices="tripinfo_19" vType="DEFAULT_VEHTYPE" speedFactor="1.16" vaporized=""/>
    <tripinfo id="43" depart="00:00:43.75" departLane="D1D2_0" departPos="5.10" departSpeed="0.00" departDelay="00:00:00.75" arrival="00:01:05.00" arrivalLane="D1D2_0" arrivalPos="85.60" arrivalSpeed="4.41" duration="00:00:21.25" routeLength="80.50" waitingTime="00:00:04.70" waitingCount="1" stopTime="00:00:00.00" timeLoss="00:00:15.67" rerouteNo="0" devices="tripinfo_43" vType="DEFAULT_VEHTYPE" speedFactor="1.04" vaporized=""/>
    <tripinfo id="13" depart="00:00:13.00" departLane="C1B1_0" departPos="5.10" departSpeed="0.00" departDelay="00:00:00.00" arrival="00:01:07.00" arrivalLane="E1E0_0" arrivalPos="89.60" arrivalSpeed="15.57" duration="00:00:54.00" routeLength="469.40" waitingTime="00:00:04.45" waitingCount="2" stopTime="00:00:00.00" timeLoss="00:00:22.40" rerouteNo="0" devices="tripinfo_13" vType="DEFAULT_VEHTYPE" speedFactor="1.12" vaporized=""/>
    <tripinfo id="29" depart="00:00:29.00" departLane="B2B1_0" departPos="5.10" departSpeed="0.00" departDelay="00:00:00.00" arrival="00:01:09.55" arrivalLane="C2D2_0" arrivalPos="85.60" arrivalSpeed="11.42" duration="00:00:40.55" routeLength="365.41" waitingTime="00:00:00.00" waitingCount="0" stopTime="00:00:00.00" timeLoss="00:00:10.47" rerouteNo="0" devices="tripinfo_29" vType="DEFAULT_VEHTYPE" speedFactor="0.93" vaporized=""/>
    <tripinfo id="28" depart="00:00:28.40" departLane="C3B3_0" departPos="5.10" departSpeed="0.00" departDelay="00:00:00.40" arrival="00:01:09.85" arrivalLane="D3C3_0" arrivalPos="85.60" arrivalSpeed="15.71" duration="00:00:41.45" routeLength="361.04" waitingTime="00:00:02.55" waitingCount="1" stopTime="00:00:00.00" timeLoss="00:00:16.84" rerouteNo="0" devices="tripinfo_28" vType="DEFAULT_VEHTYPE" speedFactor="1.13" vaporized=""/>
    <tripinfo id="31" depart="00:00:31.00" departLane="C1D1_0" departPos="5.10" departSpeed="0.00" departDelay="00:00:00.00" arrival="00:01:11.70" arrivalLane="D2D1_0" arrivalPos="85.60" arrivalSpeed="16.00" duration="00:00:40.70" routeLength="270.57" waitingTime="00:00:11.70" waitingCount="1" stopTime="00:00:00.00" timeLoss="00:00:22.33" rerouteNo="0" devices="tripinfo_31" vType="DEFAULT_VEHTYPE" speedFactor="1.15" vaporized=""/>
    <tripinfo id="35" depart="00:00:35.00" departLane="B2C2_0" departPos="5.10" departSpeed="0.00" departDelay="00:00:00.00" arrival="00:01:13.50" arrivalLane="D3D4_0" arrivalPos="85.60" arrivalSpeed="14.10" duration="00:00:38.50" routeLength="380.29" waitingTime="00:00:00.00" waitingCount="0" stopTime="00:00:00.00" timeLoss="00:00:10.89" rerouteNo="0" devices="tripinfo_35" vType="DEFAULT_VEHTYPE" speedFactor="1.02" vaporized=""/>
    <tripinfo id="14" depart="00:00:14.00" departLane="E2E1_0" departPos="5.10" departSpeed="0.00" departDelay="00:00:00.00" arrival="00:01:15.90" arrivalLane="E4E3_0" arrivalPos="89.60" arrivalSpeed="13.73" duration="00:01:01.90" routeLength="660.57" waitingTime="00:00:00.00" waitingCount="0" stopTime="00:00:00.00" timeLoss="00:00:11.18" rerouteNo="0" devices="tripinfo_14" vType="DEFAULT_VEHTYPE" speedFactor="0.99" vaporized=""/>
    <tripinfo id="30" depart="00:00:30.00" departLane="D3D2_0" departPos="5.10" departSpeed="0.00" departDelay="00:00:00.00" arrival="00:01:18.45" arrivalLane="E4E3_0" arrivalPos="89.60" arrivalSpeed="16.31" duration="00:00:48.45" routeLength="461.59" waitingTime="00:00:02.35" waitingCount="1" stopTime="00:00:00.00" timeLoss="00:00:18.38" rerouteNo="0" devices="tripinfo_30" vType="DEFAULT_VEHTYPE" speedFactor="1.18" vaporized=""/>
    <tripinfo id="3" depart="00:00:03.00" departLane="B2A2_0" departPos="5.10" departSpeed="0.00" departDelay="00:00:00.00" arrival="00:01:18.50" arrivalLane="E0D0_0" arrivalPos="89.60" arrivalSpeed="14.98" duration="00:01:15.50" routeLength="761.58" waitingTime="00:00:02.15" waitingCount="1" stopTime="00:00:00.00" timeLoss="00:00:22.88" rerouteNo="0" devices="tripinfo_3" vType="DEFAULT_VEHTYPE" speedFactor="1.08" vaporized=""/>
    <tripinfo id="27" depart="00:00:27.00" departLane="C1B1_0" departPos="5.10" departSpeed="0.00" departDelay="00:00:00.00" arrival="00:01:18.50" arrivalLane="C4D4_0" arrivalPos="85.60" arrivalSpeed="13.13" duration="00:00:51.50" routeLength="569.76" waitingTime="00:00:00.00" waitingCount="0" stopTime="00:00:00.00" timeLoss="00:00:06.70" rerouteNo="0" devices="tripinfo_27" vType="DEFAULT_VEHTYPE" speedFactor="0.95" vaporized=""/>
    <tripinfo id="32" depart="00:00:32.00" departLane="B0C0_0" departPos="5.10" departSpeed="0.00" departDelay="00:00:00.00" arrival="00:01:20.05" arrivalLane="D1D0_0" arrivalPos="85.60" arrivalSpeed="13.94" duration="00:00:48.05" routeLength="369.55" waitingTime="00:00:05.85" waitingCount="2" stopTime="00:00:00.00" timeLoss="00:00:19.38" rerouteNo="0" devices="tripinfo_32" vType="DEFAULT_VEHTYPE" speedFactor="1.01" vaporized=""/>
    <tripinfo id="33" depart="00:00:37.80" departLane="E3E4_0" departPos="5.10" departSpeed="0.00" departDelay="00:00:04.80" arrival="00:01:25.35" arrivalLane="D2D1_0" arrivalPos="85.60" arrivalSpeed="16.25" duration="00:00:47.55" routeLength="481.63" waitingTime="00:00:01.20" waitingCount="1" stopTime="00:00:00.00" timeLoss="00:00:16.72" rerouteNo="0" devices="tripinfo_33" vType="DEFAULT_VEHTYPE" speedFactor="1.17" vaporized=""/>
    <tripinfo id="41" depart="00:00:48.25" departLane="D2D3_0" departPos="5.10" departSpeed="0.00" departDelay="00:00:07.25" arrival="00:01:25.80" arrivalLane="E2D2_0" arrivalPos="85.60" arrivalSpeed="13.29" duration="00:00:37.55" routeLength="364.39" waitingTime="00:00:00.00" waitingCount="0" stopTime="00:00:00.00" timeLoss="00:00:07.83" rerouteNo="0" devices="tripinfo_41" vType="DEFAULT_VEHTYPE" speedFactor="0.96" vaporized=""/>
    <tripinfo id="18" depart="00:00:19.30" departLane="B4C4_0" departPos="5.10" departSpeed="0.00" departDelay="00:00:01.30" arrival="00:01:28.75" arrivalLane="E0E1_0" arrivalPos="89.60" arrivalSpeed="12.94" duration="00:01:09.45" routeLength="776.26" waitingTime="00:00:00.00" waitingCount="0" stopTime="00:00:00.00" timeLoss="00:00:07.43" rerouteNo="0" devices="tripinfo_18" vType="DEFAULT_VEHTYPE" speedFactor="0.94" vaporized=""/>
    <tripinfo id="44" depart="00:00:44.00" departLane="C3C2_0" departPos="5.10" departSpeed="0.00" departDelay="00:00:00.00" arrival="00:01:31.95" arrivalLane="D1D2_0" arrivalPos="85.60" arrivalSpeed="14.46" duration="00:00:47.95" routeLength="380.08" waitingTime="00:00:06.05" waitingCount="2" stopTime="00:00:00.00" timeLoss="00:00:20.27" rerouteNo="0" devices="tripinfo_44" vType="DEFAULT_VEHTYPE" speedFactor="1.04" vaporized=""/>
    <tripinfo id="25" depart="00:00:25.00" departLane="C1C0_0" departPos="5.10" departSpeed="0.00" departDelay="00:00:00.00" arrival="00:01:32.60" arrivalLane="D4D3_0" arrivalPos="85.60" arrivalSpeed="12.08" duration="00:01:07.60" routeLength="660.03" waitingTime="00:00:00.10" waitingCount="1" stopTime="00:00:00.00" timeLoss="00:00:10.41" rerouteNo="0" devices="tripinfo_25" vType="DEFAULT_VEHTYPE" speedFactor="0.87" vaporized=""/>
    <tripinfo id="47" depart="00:00:47.00" departLane="B0C0_0" departPos="5.10" departSpeed="0.00" departDelay="00:00:00.00" arrival="00:01:33.35" arrivalLane="B2B3_0" arrivalPos="85.60" arrivalSpeed="12.47" duration="00:00:46.35" routeLength="465.41" waitingTime="00:00:00.00" waitingCount="0" stopTime="00:00:00.00" timeLoss="00:00:07.30" rerouteNo="0" devices="tripinfo_47" vType="DEFAULT_VEHTYPE" speedFactor="0.90" vaporized=""/>
    <tripinfo id="36" depart="00:00:40.45" departLane="E3E4_0" departPos="5.10" departSpeed="0.00" departDelay="00:00:04.45" arrival="00:01:33.55" arrivalLane="D2D3_0" arrivalPos="85.60" arrivalSpeed="13.45" duration="00:00:53.10" routeLength="471.91" waitingTime="00:00:00.00" waitingCount="0" stopTime="00:00:00.00" timeLoss="00:00:15.72" rerouteNo="0" devices="tripinfo_36" vType="DEFAULT_VEHTYPE" speedFactor="0.97" vaporized=""/>
    <tripinfo id="84" depart="00:01:25.35" departLane="D1E1_0" departPos="5.10" departSpeed="0.00" departDelay="00:00:01.35" arrival="00:01:34.30" arrivalLane="D1E1_0" arrivalPos="85.60" arrivalSpeed="15.89" duration="00:00:08.95" routeLength="80.50" waitingTime="00:00:00.00" waitingCount="0" stopTime="00:00:00.00" timeLoss="00:00:03.87" rerouteNo="0" devices="tripinfo_84" vType="DEFAULT_VEHTYPE" speedFactor="1.15" vaporized=""/>
    <tripinfo id="57" depart="00:00:57.00" departLane="B2B3_0" departPos="5.10" departSpeed="0.00" departDelay="00:00:00.00" arrival="00:01:34.40" arrivalLane="C2C1_0" arrivalPos="85.60" arrivalSpeed="15.85" duration="00:00:37.40" routeLength="369.76" waitingTime="00:00:00.00" waitingCount="0" stopTime="00:00:00.00" timeLoss="00:00:12.78" rerouteNo="0" devices="tripinfo_57" vType="DEFAULT_VEHTYPE" speedFactor="1.14" vaporized=""/>
    <tripinfo id="37" depart="00:00:39.45" departLane="C1C0_0" departPos="5.10" departSpeed="0.00" departDelay="00:00:02.45" arrival="00:01:34.60" arrivalLane="D4E4_0" arrivalPos="89.60" arrivalSpeed="16.35" duration="00:00:55.15" routeLength="669.40" waitingTime="00:00:00.50" waitingCount="1" stopTime="00:00:00.00" timeLoss="00:00:12.84" rerouteNo="0" devices="tripinfo_37" vType="DEFAULT_VEHTYPE" speedFactor="1.18" vaporized=""/>
    <tripinfo id="38" depart="00:00:42.05" departLane="C1C0_0" departPos="5.10" departSpeed="0.00" departDelay="00:00:04.05" arrival="00:01:35.05" arrivalLane="D3E3_0" arrivalPos="85.60" arrivalSpeed="15.29" duration="00:00:53.00" routeLength="565.40" waitingTime="00:00:00.00" waitingCount="0" stopTime="00:00:00.00" timeLoss="00:00:14.51" rerouteNo="0" devices="tripinfo_38" vType="DEFAULT_VEHTYPE" speedFactor="1.10" vaporized=""/>
    <tripinfo id="62" depart="00:01:02.55" departLane="A4B4_0" departPos="5.10" departSpeed="0.00" departDelay="00:00:00.55" arrival="00:01:35.10" arrivalLane="B2B1_0" arrivalPos="85.60" arrivalSpeed="14.06" duration="00:00:32.55" routeLength="379.13" waitingTime="00:00:00.00" waitingCount="0" stopTime="00:00:00.00" timeLoss="00:00:04.97" rerouteNo="0" devices="tripinfo_62" vType="DEFAULT_VEHTYPE" speedFactor="1.02" vaporized=""/>
    <tripinfo id="40" depart="00:00:44.60" departLane="E4D4_0" departPos="5.10" departSpeed="0.00" departDelay="00:00:04.60" arrival="00:01:36.35" arrivalLane="E2E1_0" arrivalPos="85.60" arrivalSpeed="14.28" duration="00:00:51.75" routeLength="470.96" waitingTime="00:00:06.40" waitingCount="1" stopTime="00:00:00.00" timeLoss="00:00:17.49" rerouteNo="0" devices="tripinfo_40" vType="DEFAULT_VEHTYPE" speedFactor="1.03" vaporized=""/>
    <tripinfo id="50" depart="00:00:57.60" departLane="C2D2_0" departPos="5.10" departSpeed="0.00" departDelay="00:00:07.60" arrival="00:01:36.65" arrivalLane="E2D2_0" arrivalPos="85.60" arrivalSpeed="11.83" duration="00:00:39.05" routeLength="270.77" waitingTime="00:00:07.75" waitingCount="1" stopTime="00:00:00.00" timeLoss="00:00:15.16" rerouteNo="0" devices="tripinfo_50" vType="DEFAULT_VEHTYPE" speedFactor="0.85" vaporized=""/>
    <tripinfo id="58" depart="00:00:58.00" departLane="E2E3_0" departPos="5.10" departSpeed="0.00" departDelay="00:00:00.00" arrival="00:01:37.00" arrivalLane="E1E2_0" arrivalPos="85.60" arrivalSpeed="14.19" duration="00:00:39.00" routeLength="361.06" waitingTime="00:00:00.90" waitingCount="1" stopTime="00:00:00.00" timeLoss="00:00:11.75" rerouteNo="0" devices="tripinfo_58" vType="DEFAULT_VEHTYPE" speedFactor="1.02" vaporized=""/>
    <tripinfo id="51" depart="00:00:52.85" departLane="B2C2_0" departPos="5.10" departSpeed="0.00" departDelay="00:00:01.85" arrival="00:01:37.25" arrivalLane="D0D1_0" arrivalPos="85.60" arrivalSpeed="16.18" duration="00:00:44.40" routeLength="465.40" waitingTime="00:00:00.00" waitingCount="0" stopTime="00:00:00.00" timeLoss="00:00:14.27" rerouteNo="0" devices="tripinfo_51" vType="DEFAULT_VEHTYPE" speedFactor="1.17" vaporized=""/>
    <tripinfo id="69" depart="00:01:09.00" departLane="A2A3_0" departPos="5.10" departSpeed="0.00" departDelay="00:00:00.00" arrival="00:01:37.30" arrivalLane="B3A3_0" arrivalPos="85.60" arrivalSpeed="14.16" duration="00:00:28.30" routeLength="265.40" waitingTime="00:00:00.00" waitingCount="0" stopTime="00:00:00.00" timeLoss="00:00:07.96" rerouteNo="0" devices="tripinfo_69" vType="DEFAULT_VEHTYPE" speedFactor="1.02" vaporized=""/>
    <tripinfo id="65" depart="00:01:05.00" departLane="C0C1_0" departPos="5.10" departSpeed="0.00" departDelay="00:00:00.00" arrival="00:01:38.35" arrivalLane="B1A1_0" arrivalPos="85.60" arrivalSpeed="11.21" duration="00:00:33.35" routeLength="280.29" waitingTime="00:00:00.80" waitingCount="1" stopTime="00:00:00.00" timeLoss="00:00:09.65" rerouteNo="0" devices="tripinfo_65" vType="DEFAULT_VEHTYPE" speedFactor="0.88" vaporized=""/>
    <tripinfo id="45" depart="00:00:45.00" departLane="E1E0_0" departPos="5.10" departSpeed="0.00" departDelay="00:00:00.00" arrival="00:01:39.95" arrivalLane="A1A2_0" arrivalPos="85.60" arrivalSpeed="15.11" duration="00:00:54.95" routeLength="672.86" waitingTime="00:00:00.00" waitingCount="0" stopTime="00:00:00.00" timeLoss="00:00:09.58" rerouteNo="0" devices="tripinfo_45" vType="DEFAULT_VEHTYPE" speedFactor="1.09" vaporized=""/>
    <tripinfo id="56" depart="00:00:56.80" departLane="E2E1_0" departPos="5.10" departSpeed="0.00" departDelay="00:00:00.80" arrival="00:01:42.70" arrivalLane="C0C1_0" arrivalPos="85.60" arrivalSpeed="12.47" duration="00:00:45.90" routeLength="471.31" waitingTime="00:00:00.00" waitingCount="0" stopTime="00:00:00.00" timeLoss="00:00:06.82" rerouteNo="0" devices="tripinfo_56" vType="DEFAULT_VEHTYPE" speedFactor="0.90" vaporized=""/>
    <tripinfo id="49" depart="00:00:49.00" departLane="A0B0_0" departPos="5.10" departSpeed="0.00" departDelay="00:00:00.00" arrival="00:01:43.05" arrivalLane="A2B2_0" arrivalPos="85.60" arrivalSpeed="6.15" duration="00:00:54.05" routeLength="465.59" waitingTime="00:00:00.00" waitingCount="0" stopTime="00:00:00.00" timeLoss="00:00:12.16" rerouteNo="0" devices="tripinfo_49" vType="DEFAULT_VEHTYPE" speedFactor="0.85" vaporized=""/>
    <tripinfo id="39" depart="00:00:41.95" departLane="A4B4_0" departPos="5.10" departSpeed="0.00" departDelay="00:00:02.95" arrival="00:01:43.45" arrivalLane="C0B0_0" arrivalPos="85.60" arrivalSpeed="12.48" duration="00:01:01.50" routeLength="673.76" waitingTime="00:00:00.00" waitingCount="0" stopTime="00:00:00.00" timeLoss="00:00:06.00" rerouteNo="0" devices="tripinfo_39" vType="DEFAULT_VEHTYPE" speedFactor="0.90" vaporized=""/>
    <tripinfo id="46" depart="00:00:48.95" departLane="C2D2_0" departPos="5.10" departSpeed="0.00" departDelay="00:00:02.95" arrival="00:01:43.85" arrivalLane="B0A0_0" arrivalPos="89.60" arrivalSpeed="8.35" duration="00:00:54.90" routeLength="573.76" waitingTime="00:00:00.00" waitingCount="0" stopTime="00:00:00.00" timeLoss="00:00:12.01" rerouteNo="0" devices="tripinfo_46" vType="DEFAULT_VEHTYPE" speedFactor="1.00" vaporized=""/>
    <tripinfo id="24" depart="00:00:24.00" departLane="B0A0_0" departPos="5.10" departSpeed="0.00" departDelay="00:00:00.00" arrival="00:01:44.05" arrivalLane="E2D2_0" arrivalPos="85.60" arrivalSpeed="11.46" duration="00:01:20.05" routeLength="761.58" waitingTime="00:00:00.00" waitingCount="0" stopTime="00:00:00.00" timeLoss="00:00:11.08" rerouteNo="0" devices="tripinfo_24" vType="DEFAULT_VEHTYPE" speedFactor="0.83" vaporized=""/>
    <tripinfo id="61" depart="00:01:01.00" departLane="D0D1_0" departPos="5.10" departSpeed="0.00" departDelay="00:00:00.00" arrival="00:01:44.15" arrivalLane="E0E1_0" arrivalPos="89.60" arrivalSpeed="15.50" duration="00:00:43.15" routeLength="371.91" waitingTime="00:00:01.80" waitingCount="2" stopTime="00:00:00.00" timeLoss="00:00:17.11" rerouteNo="0" devices="tripinfo_61" vType="DEFAULT_VEHTYPE" speedFactor="1.12" vaporized=""/>
    <tripinfo id="48" depart="00:00:49.10" departLane="C3B3_0" departPos="5.10" departSpeed="0.00" departDelay="00:00:01.10" arrival="00:01:45.45" arrivalLane="A1A2_0" arrivalPos="85.60" arrivalSpeed="12.17" duration="00:00:56.35" routeLength="469.55" waitingTime="00:00:03.80" waitingCount="2" stopTime="00:00:00.00" timeLoss="00:00:15.28" rerouteNo="0" devices="tripinfo_48" vType="DEFAULT_VEHTYPE" speedFactor="0.88" vaporized=""/>
    <tripinfo id="53" depart="00:00:53.50" departLane="D2E2_0" departPos="5.10" departSpeed="0.00" departDelay="00:00:00.50" arrival="00:01:46.45" arrivalLane="B2A2_0" arrivalPos="85.60" arrivalSpeed="15.16" duration="00:00:52.95" routeLength="470.77" waitingTime="00:00:05.15" waitingCount="1" stopTime="00:00:00.00" timeLoss="00:00:21.16" rerouteNo="0" devices="tripinfo_53" vType="DEFAULT_VEHTYPE" speedFactor="1.10" vaporized=""/>
    <tripinfo id="52" depart="00:00:52.00" departLane="B4B3_0" departPos="5.10" departSpeed="0.00" departDelay="00:00:00.00" arrival="00:01:47.00" arrivalLane="E3D3_0" arrivalPos="85.60" arrivalSpeed="14.07" duration="00:00:55.00" routeLength="470.56" waitingTime="00:00:05.30" waitingCount="1" stopTime="00:00:00.00" timeLoss="00:00:20.03" rerouteNo="0" devices="tripinfo_52" vType="DEFAULT_VEHTYPE" speedFactor="1.02" vaporized=""/>
    <tripinfo id="70" depart="00:01:14.35" departLane="A0A1_0" departPos="5.10" departSpeed="0.00" departDelay="00:00:04.35" arrival="00:01:47.70" arrivalLane="A3A4_0" arrivalPos="89.60" arrivalSpeed="14.19" duration="00:00:33.35" routeLength="388.50" waitingTime="00:00:00.00" waitingCount="0" stopTime="00:00:00.00" timeLoss="00:00:05.98" rerouteNo="0" devices="tripinfo_70" vType="DEFAULT_VEHTYPE" speedFactor="1.02" vaporized=""/>
    <tripinfo id="60" depart="00:01:03.10" departLane="C1D1_0" departPos="5.10" departSpeed="0.00" departDelay="00:00:03.10" arrival="00:01:48.60" arrivalLane="C3C2_0" arrivalPos="85.60" arrivalSpeed="14.99" duration="00:00:45.50" routeLength="455.68" waitingTime="00:00:00.00" waitingCount="0" stopTime="00:00:00.00" timeLoss="00:00:12.77" rerouteNo="0" devices="tripinfo_60" vType="DEFAULT_VEHTYPE" speedFactor="1.08" vaporized=""/>
    <tripinfo id="68" depart="00:01:13.20" departLane="C3B3_0" departPos="5.10" departSpeed="0.00" departDelay="00:00:05.20" arrival="00:01:51.60" arrivalLane="D3D2_0" arrivalPos="85.60" arrivalSpeed="14.40" duration="00:00:38.40" routeLength="365.40" waitingTime="00:00:00.00" waitingCount="0" stopTime="00:00:00.00" timeLoss="00:00:11.44" rerouteNo="0" devices="tripinfo_68" vType="DEFAULT_VEHTYPE" speedFactor="1.04" vaporized=""/>