<?xml version="1.0" encoding="UTF-8"?>

<!-- generated on Thu 30 Jan 20:22:53 2020 by Eclipse SUMO GUI Version 1.2.0
<configuration xmlns:xsi="http://www.w3.org/2001/XMLSchema-instance" xsi:noNamespaceSchemaLocation="http://sumo.dlr.de/xsd/sumoConfiguration.xsd">

    <input>
        <net-file value="/Users/jamie/Documents/University/Third%20Year/Project/GitHub/Sandbox/Grid%20Network/myGridNetwork25Car/SUMO/net.net.xml"/>
        <route-files value="/Users/jamie/Documents/University/Third%20Year/Project/GitHub/Sandbox/Grid%20Network/myGridNetwork25Car/SUMO/routes200car.rou.xml"/>
    </input>

    <output>
        <write-license value="true"/>
        <human-readable-time value="true"/>
        <summary-output value="/Users/jamie/Documents/University/Third%20Year/Project/GitHub/Sandbox/Grid%20Network/myGridNetwork25Car/SUMO/results/summaryOutput25car.txt"/>
        <tripinfo-output value="/Users/jamie/Documents/University/Third%20Year/Project/GitHub/Sandbox/Grid%20Network/myGridNetwork25Car/SUMO/results/tripInfo25car.txt"/>
    </output>

    <time>
        <begin value="0"/>
        <step-length value="0.05"/>
    </time>

    <processing>
        <route-steps value="250"/>
    </processing>

    <report>
        <verbose value="true"/>
        <duration-log.statistics value="true"/>
        <no-step-log value="true"/>
    </report>

    <gui_only>
        <gui-settings-file value="/Users/jamie/Documents/University/Third%20Year/Project/GitHub/Sandbox/Grid%20Network/myGridNetwork25Car/SUMO/settings.settings.xml"/>
        <quit-on-end value="false"/>
        <start value="false"/>
        <tracker-interval value="0.05"/>
    </gui_only>

</configuration>
-->

<tripinfos xmlns:xsi="http://www.w3.org/2001/XMLSchema-instance" xsi:noNamespaceSchemaLocation="http://sumo.dlr.de/xsd/tripinfo_file.xsd">
    <tripinfo id="0" depart="00:00:00.00" departLane="B1B0_0" departPos="5.10" departSpeed="0.00" departDelay="00:00:00.00" arrival="00:00:41.90" arrivalLane="E0E1_1" arrivalPos="83.20" arrivalSpeed="13.54" duration="00:00:41.90" routeLength="477.91" waitingTime="00:00:00.00" waitingCount="0" stopTime="00:00:00.00" timeLoss="00:00:05.50" rerouteNo="0" devices="tripinfo_0" vType="type2" speedFactor="0.98" vaporized=""/>
    <tripinfo id="7" depart="00:00:14.00" departLane="C4D4_0" departPos="5.10" departSpeed="0.00" departDelay="00:00:00.00" arrival="00:00:52.05" arrivalLane="D1C1_0" arrivalPos="79.20" arrivalSpeed="15.10" duration="00:00:38.05" routeLength="450.56" waitingTime="00:00:00.00" waitingCount="0" stopTime="00:00:00.00" timeLoss="00:00:06.93" rerouteNo="0" devices="tripinfo_7" vType="type2" speedFactor="1.09" vaporized=""/>
    <tripinfo id="13" depart="00:00:26.00" departLane="C2D2_0" departPos="5.10" departSpeed="0.00" departDelay="00:00:00.00" arrival="00:00:57.85" arrivalLane="D3C3_1" arrivalPos="79.20" arrivalSpeed="12.98" duration="00:00:31.85" routeLength="271.21" waitingTime="00:00:01.15" waitingCount="1" stopTime="00:00:00.00" timeLoss="00:00:09.46" rerouteNo="0" devices="tripinfo_13" vType="type2" speedFactor="0.94" vaporized=""/>
    <tripinfo id="17" depart="00:00:34.00" departLane="B1B2_0" departPos="5.10" departSpeed="0.00" departDelay="00:00:00.00" arrival="00:01:09.85" arrivalLane="C1C0_0" arrivalPos="79.20" arrivalSpeed="12.34" duration="00:00:35.85" routeLength="350.56" waitingTime="00:00:00.00" waitingCount="0" stopTime="00:00:00.00" timeLoss="00:00:05.82" rerouteNo="0" devices="tripinfo_17" vType="type2" speedFactor="0.89" vaporized=""/>
    <tripinfo id="41" depart="00:01:22.00" departLane="A0B0_0" departPos="5.10" departSpeed="0.00" departDelay="00:00:00.00" arrival="00:01:31.00" arrivalLane="A0B0_0" arrivalPos="83.20" arrivalSpeed="13.93" duration="00:00:09.00" routeLength="78.10" waitingTime="00:00:00.00" waitingCount="0" stopTime="00:00:00.00" timeLoss="00:00:03.39" rerouteNo="0" devices="tripinfo_41" vType="type2" speedFactor="1.00" vaporized=""/>
    <tripinfo id="11" depart="00:00:22.00" departLane="B0A0_0" departPos="5.10" departSpeed="0.00" departDelay="00:00:00.00" arrival="00:01:31.10" arrivalLane="B2B1_0" arrivalPos="79.20" arrivalSpeed="12.86" duration="00:01:09.10" routeLength="440.34" waitingTime="00:00:05.00" waitingCount="1" stopTime="00:00:00.00" timeLoss="00:00:32.81" rerouteNo="0" devices="tripinfo_11" vType="type2" speedFactor="0.93" vaporized=""/>
    <tripinfo id="9" depart="00:00:18.00" departLane="B3B2_0" departPos="5.10" departSpeed="0.00" departDelay="00:00:00.00" arrival="00:01:31.40" arrivalLane="C3C2_0" arrivalPos="79.20" arrivalSpeed="4.99" duration="00:01:13.40" routeLength="334.44" waitingTime="00:00:01.00" waitingCount="2" stopTime="00:00:00.00" timeLoss="00:00:06.24" rerouteNo="0" devices="tripinfo_9" vType="type1" speedFactor="1.06" vaporized=""/>
    <tripinfo id="2" depart="00:00:04.00" departLane="B0A0_0" departPos="5.10" departSpeed="0.00" departDelay="00:00:00.00" arrival="00:01:34.30" arrivalLane="B2A2_0" arrivalPos="79.20" arrivalSpeed="5.00" duration="00:01:30.30" routeLength="435.98" waitingTime="00:00:00.05" waitingCount="1" stopTime="00:00:00.00" timeLoss="00:00:02.78" rerouteNo="0" devices="tripinfo_2" vType="type1" speedFactor="1.10" vaporized=""/>
    <tripinfo id="27" depart="00:00:54.00" departLane="E2E1_0" departPos="5.10" departSpeed="0.00" departDelay="00:00:00.00" arrival="00:01:35.65" arrivalLane="C0D0_1" arrivalPos="79.20" arrivalSpeed="14.13" duration="00:00:41.65" routeLength="447.76" waitingTime="00:00:00.00" waitingCount="0" stopTime="00:00:00.00" timeLoss="00:00:08.04" rerouteNo="0" devices="tripinfo_27" vType="type2" speedFactor="1.02" vaporized=""/>
    <tripinfo id="4" depart="00:00:08.00" departLane="A1A2_0" departPos="5.10" departSpeed="0.00" departDelay="00:00:00.00" arrival="00:01:43.65" arrivalLane="B4C4_0" arrivalPos="79.20" arrivalSpeed="4.97" duration="00:01:35.65" routeLength="463.88" waitingTime="00:00:00.05" waitingCount="1" stopTime="00:00:00.00" timeLoss="00:00:02.76" rerouteNo="0" devices="tripinfo_4" vType="type1" speedFactor="1.04" vaporized=""/>
    <tripinfo id="30" depart="00:01:00.00" departLane="C0D0_0" departPos="5.10" departSpeed="0.00" departDelay="00:00:00.00" arrival="00:01:45.70" arrivalLane="E2E3_0" arrivalPos="79.20" arrivalSpeed="11.58" duration="00:00:45.70" routeLength="479.36" waitingTime="00:00:00.00" waitingCount="0" stopTime="00:00:00.00" timeLoss="00:00:03.50" rerouteNo="0" devices="tripinfo_30" vType="type2" speedFactor="0.83" vaporized=""/>
    <tripinfo id="44" depart="00:01:28.00" departLane="D3D4_0" departPos="5.10" departSpeed="0.00" departDelay="00:00:00.00" arrival="00:01:46.00" arrivalLane="D4C4_1" arrivalPos="79.20" arrivalSpeed="13.31" duration="00:00:18.00" routeLength="172.65" waitingTime="00:00:00.00" waitingCount="0" stopTime="00:00:00.00" timeLoss="00:00:04.34" rerouteNo="0" devices="tripinfo_44" vType="type2" speedFactor="0.96" vaporized=""/>
    <tripinfo id="20" depart="00:00:40.00" departLane="C2D2_0" departPos="5.10" departSpeed="0.00" departDelay="00:00:00.00" arrival="00:01:52.10" arrivalLane="E3D3_0" arrivalPos="79.20" arrivalSpeed="5.00" duration="00:01:12.10" routeLength="344.75" waitingTime="00:00:00.05" waitingCount="1" stopTime="00:00:00.00" timeLoss="00:00:02.83" rerouteNo="0" devices="tripinfo_20" vType="type1" speedFactor="1.02" vaporized=""/>
    <tripinfo id="36" depart="00:01:12.00" departLane="C2D2_0" departPos="5.10" departSpeed="0.00" departDelay="00:00:00.00" arrival="00:01:56.40" arrivalLane="A2A3_0" arrivalPos="79.20" arrivalSpeed="14.14" duration="00:00:44.40" routeLength="446.20" waitingTime="00:00:00.00" waitingCount="0" stopTime="00:00:00.00" timeLoss="00:00:11.25" rerouteNo="0" devices="tripinfo_36" vType="type2" speedFactor="1.02" vaporized=""/>
    <tripinfo id="15" depart="00:00:30.00" departLane="A3A2_0" departPos="5.10" departSpeed="0.00" departDelay="00:00:00.00" arrival="00:01:59.60" arrivalLane="E3E2_0" arrivalPos="79.20" arrivalSpeed="14.02" duration="00:01:29.60" routeLength="634.44" waitingTime="00:00:00.00" waitingCount="0" stopTime="00:00:00.00" timeLoss="00:00:41.97" rerouteNo="0" devices="tripinfo_15" vType="type2" speedFactor="1.01" vaporized=""/>
    <tripinfo id="25" depart="00:00:50.00" departLane="B3B4_0" departPos="5.10" departSpeed="0.00" departDelay="00:00:00.00" arrival="00:02:02.45" arrivalLane="B2A2_0" arrivalPos="79.20" arrivalSpeed="5.00" duration="00:01:12.45" routeLength="346.20" waitingTime="00:00:00.05" waitingCount="1" stopTime="00:00:00.00" timeLoss="00:00:02.88" rerouteNo="0" devices="tripinfo_25" vType="type1" speedFactor="1.00" vaporized=""/>
    <tripinfo id="29" depart="00:00:58.00" departLane="B1B2_0" departPos="5.10" departSpeed="0.00" departDelay="00:00:00.00" arrival="00:02:10.65" arrivalLane="C3C2_0" arrivalPos="79.20" arrivalSpeed="4.97" duration="00:01:12.65" routeLength="350.56" waitingTime="00:00:00.05" waitingCount="1" stopTime="00:00:00.00" timeLoss="00:00:02.52" rerouteNo="0" devices="tripinfo_29" vType="type1" speedFactor="1.05" vaporized=""/>
    <tripinfo id="42" depart="00:01:24.00" departLane="D3D2_0" departPos="5.10" departSpeed="0.00" departDelay="00:00:00.00" arrival="00:02:12.65" arrivalLane="B4C4_0" arrivalPos="79.20" arrivalSpeed="15.23" duration="00:00:48.65" routeLength="538.79" waitingTime="00:00:00.00" waitingCount="0" stopTime="00:00:00.00" timeLoss="00:00:11.41" rerouteNo="0" devices="tripinfo_42" vType="type2" speedFactor="1.10" vaporized=""/>
    <tripinfo id="12" depart="00:00:24.00" departLane="E2E1_0" departPos="5.10" departSpeed="0.00" departDelay="00:00:00.00" arrival="00:02:14.15" arrivalLane="B2B1_0" arrivalPos="79.20" arrivalSpeed="5.00" duration="00:01:50.15" routeLength="534.44" waitingTime="00:00:00.05" waitingCount="1" stopTime="00:00:00.00" timeLoss="00:00:02.94" rerouteNo="0" devices="tripinfo_12" vType="type1" speedFactor="1.02" vaporized=""/>
    <tripinfo id="37" depart="00:01:14.00" departLane="E2E1_0" departPos="5.10" departSpeed="0.00" departDelay="00:00:00.00" arrival="00:02:20.30" arrivalLane="C4C3_1" arrivalPos="79.20" arrivalSpeed="12.18" duration="00:01:06.30" routeLength="634.43" waitingTime="00:00:00.00" waitingCount="0" stopTime="00:00:00.00" timeLoss="00:00:11.49" rerouteNo="0" devices="tripinfo_37" vType="type2" speedFactor="0.88" vaporized=""/>
    <tripinfo id="45" depart="00:01:30.25" departLane="C0D0_0" departPos="5.10" departSpeed="0.00" departDelay="00:00:00.25" arrival="00:02:28.65" arrivalLane="E0E1_0" arrivalPos="83.20" arrivalSpeed="4.99" duration="00:00:58.40" routeLength="279.36" waitingTime="00:00:00.05" waitingCount="1" stopTime="00:00:00.00" timeLoss="00:00:02.53" rerouteNo="0" devices="tripinfo_45" vType="type1" speedFactor="1.01" vaporized=""/>
    <tripinfo id="38" depart="00:01:16.00" departLane="D1C1_0" departPos="5.10" departSpeed="0.00" departDelay="00:00:00.00" arrival="00:02:28.75" arrivalLane="C3D3_0" arrivalPos="79.20" arrivalSpeed="4.98" duration="00:01:12.75" routeLength="350.56" waitingTime="00:00:00.05" waitingCount="1" stopTime="00:00:00.00" timeLoss="00:00:02.61" rerouteNo="0" devices="tripinfo_38" vType="type1" speedFactor="1.03" vaporized=""/>
    <tripinfo id="26" depart="00:00:52.00" departLane="B3A3_0" departPos="5.10" departSpeed="0.00" departDelay="00:00:00.00" arrival="00:02:30.25" arrivalLane="A0B0_0" arrivalPos="83.20" arrivalSpeed="4.99" duration="00:01:38.25" routeLength="477.91" waitingTime="00:00:00.05" waitingCount="1" stopTime="00:00:00.00" timeLoss="00:00:02.67" rerouteNo="0" devices="tripinfo_26" vType="type1" speedFactor="0.98" vaporized=""/>
    <tripinfo id="39" depart="00:01:18.00" departLane="C2D2_0" departPos="5.10" departSpeed="0.00" departDelay="00:00:00.00" arrival="00:02:30.75" arrivalLane="D0C0_0" arrivalPos="79.20" arrivalSpeed="4.98" duration="00:01:12.75" routeLength="350.56" waitingTime="00:00:00.05" waitingCount="1" stopTime="00:00:00.00" timeLoss="00:00:02.62" rerouteNo="0" devices="tripinfo_39" vType="type1" speedFactor="1.08" vaporized=""/>
    <tripinfo id="32" depart="00:01:04.00" departLane="B4C4_0" departPos="5.10" departSpeed="0.00" departDelay="00:00:00.00" arrival="00:02:38.80" arrivalLane="C1B1_0" arrivalPos="79.20" arrivalSpeed="4.98" duration="00:01:34.80" routeLength="450.56" waitingTime="00:00:00.05" waitingCount="1" stopTime="00:00:00.00" timeLoss="00:00:04.70" rerouteNo="0" devices="tripinfo_32" vType="type1" speedFactor="1.03" vaporized=""/>
    <tripinfo id="46" depart="00:01:32.00" departLane="B3C3_0" departPos="5.10" departSpeed="0.00" departDelay="00:00:00.00" arrival="00:02:46.80" arrivalLane="D2E2_0" arrivalPos="79.20" arrivalSpeed="4.98" duration="00:01:14.80" routeLength="360.89" waitingTime="00:00:00.05" waitingCount="1" stopTime="00:00:00.00" timeLoss="00:00:02.62" rerouteNo="0" devices="tripinfo_46" vType="type1" speedFactor="1.00" vaporized=""/>
    <tripinfo id="67" depart="00:02:14.00" departLane="A0A1_0" departPos="5.10" departSpeed="0.00" departDelay="00:00:00.00" arrival="00:02:50.70" arrivalLane="A1B1_1" arrivalPos="79.20" arrivalSpeed="4.21" duration="00:00:36.70" routeLength="166.33" waitingTime="00:00:00.05" waitingCount="1" stopTime="00:00:00.00" timeLoss="00:00:03.42" rerouteNo="0" devices="tripinfo_67" vType="type1" speedFactor="0.92" vaporized=""/>
    <tripinfo id="60" depart="00:02:00.00" departLane="D1C1_0" departPos="5.10" departSpeed="0.00" departDelay="00:00:00.00" arrival="00:02:52.65" arrivalLane="C2D2_0" arrivalPos="79.20" arrivalSpeed="5.00" duration="00:00:52.65" routeLength="250.56" waitingTime="00:00:00.05" waitingCount="1" stopTime="00:00:00.00" timeLoss="00:00:02.51" rerouteNo="0" devices="tripinfo_60" vType="type1" speedFactor="0.95" vaporized=""/>
    <tripinfo id="21" depart="00:00:42.00" departLane="A3B3_0" departPos="5.10" departSpeed="0.00" departDelay="00:00:00.00" arrival="00:02:55.35" arrivalLane="D0C0_0" arrivalPos="79.20" arrivalSpeed="4.97" duration="00:02:13.35" routeLength="650.56" waitingTime="00:00:00.05" waitingCount="1" stopTime="00:00:00.00" timeLoss="00:00:03.21" rerouteNo="0" devices="tripinfo_21" vType="type1" speedFactor="1.07" vaporized=""/>
    <tripinfo id="47" depart="00:01:34.00" departLane="D2D3_0" departPos="5.10" departSpeed="0.00" departDelay="00:00:00.00" arrival="00:03:04.35" arrivalLane="E1D1_0" arrivalPos="79.20" arrivalSpeed="4.97" duration="00:01:30.35" routeLength="438.79" waitingTime="00:00:00.05" waitingCount="1" stopTime="00:00:00.00" timeLoss="00:00:02.60" rerouteNo="0" devices="tripinfo_47" vType="type1" speedFactor="1.06" vaporized=""/>
    <tripinfo id="66" depart="00:02:12.00" departLane="E1E2_0" departPos="5.10" departSpeed="0.00" departDelay="00:00:00.00" arrival="00:03:18.00" arrivalLane="A4A3_0" arrivalPos="83.20" arrivalSpeed="13.08" duration="00:01:06.00" routeLength="784.62" waitingTime="00:00:00.00" waitingCount="0" stopTime="00:00:00.00" timeLoss="00:00:04.54" rerouteNo="0" devices="tripinfo_66" vType="type2" speedFactor="0.94" vaporized=""/>
    <tripinfo id="87" depart="00:02:54.00" departLane="D4C4_0" departPos="5.10" departSpeed="0.00" departDelay="00:00:00.00" arrival="00:03:30.10" arrivalLane="C2D2_1" arrivalPos="79.20" arrivalSpeed="16.29" duration="00:00:36.10" routeLength="371.22" waitingTime="00:00:01.45" waitingCount="1" stopTime="00:00:00.00" timeLoss="00:00:12.19" rerouteNo="0" devices="tripinfo_87" vType="type2" speedFactor="1.18" vaporized=""/>
    <tripinfo id="63" depart="00:02:06.00" departLane="D2D1_0" departPos="5.10" departSpeed="0.00" departDelay="00:00:00.00" arrival="00:03:35.85" arrivalLane="E3D3_0" arrivalPos="79.20" arrivalSpeed="4.98" duration="00:01:29.85" routeLength="430.08" waitingTime="00:00:00.05" waitingCount="1" stopTime="00:00:00.00" timeLoss="00:00:03.12" rerouteNo="0" devices="tripinfo_63" vType="type1" speedFactor="0.99" vaporized=""/>
    <tripinfo id="90" depart="00:03:00.00" departLane="E2E1_0" departPos="5.10" departSpeed="0.00" departDelay="00:00:00.00" arrival="00:03:37.65" arrivalLane="D2D1_1" arrivalPos="79.20" arrivalSpeed="13.55" duration="00:00:37.65" routeLength="334.44" waitingTime="00:00:00.00" waitingCount="0" stopTime="00:00:00.00" timeLoss="00:00:10.52" rerouteNo="0" devices="tripinfo_90" vType="type2" speedFactor="0.98" vaporized=""/>
    <tripinfo id="91" depart="00:03:02.00" departLane="D2D3_0" departPos="5.10" departSpeed="0.00" departDelay="00:00:00.00" arrival="00:03:40.75" arrivalLane="C2C3_0" arrivalPos="79.20" arrivalSpeed="13.02" duration="00:00:38.75" routeLength="334.44" waitingTime="00:00:00.55" waitingCount="1" stopTime="00:00:00.00" timeLoss="00:00:10.61" rerouteNo="0" devices="tripinfo_91" vType="type2" speedFactor="0.94" vaporized=""/>
    <tripinfo id="50" depart="00:01:40.00" departLane="E4D4_0" departPos="5.10" departSpeed="0.00" departDelay="00:00:00.00" arrival="00:03:49.05" arrivalLane="D0C0_0" arrivalPos="79.20" arrivalSpeed="4.97" duration="00:02:09.05" routeLength="564.89" waitingTime="00:00:07.55" waitingCount="3" stopTime="00:00:00.00" timeLoss="00:00:16.06" rerouteNo="0" devices="tripinfo_50" vType="type1" speedFactor="0.98" vaporized=""/>
    <tripinfo id="102" depart="00:03:24.00" departLane="B4B3_0" departPos="5.10" departSpeed="0.00" departDelay="00:00:00.00" arrival="00:03:49.85" arrivalLane="A3A2_1" arrivalPos="79.20" arrivalSpeed="14.33" duration="00:00:25.85" routeLength="260.88" waitingTime="00:00:00.00" waitingCount="0" stopTime="00:00:00.00" timeLoss="00:00:06.35" rerouteNo="0" devices="tripinfo_102" vType="type2" speedFactor="1.04" vaporized=""/>
    <tripinfo id="75" depart="00:02:30.00" departLane="E0D0_0" departPos="5.10" departSpeed="0.00" departDelay="00:00:00.00" arrival="00:03:53.15" arrivalLane="C1C2_0" arrivalPos="79.20" arrivalSpeed="5.00" duration="00:01:23.15" routeLength="366.33" waitingTime="00:00:03.40" waitingCount="2" stopTime="00:00:00.00" timeLoss="00:00:09.89" rerouteNo="0" devices="tripinfo_75" vType="type1" speedFactor="0.98" vaporized=""/>
    <tripinfo id="85" depart="00:02:50.00" departLane="D3E3_0" departPos="5.10" departSpeed="0.00" departDelay="00:00:00.00" arrival="00:04:00.35" arrivalLane="D2D3_0" arrivalPos="79.20" arrivalSpeed="4.98" duration="00:01:10.35" routeLength="338.79" waitingTime="00:00:00.05" waitingCount="1" stopTime="00:00:00.00" timeLoss="00:00:02.61" rerouteNo="0" devices="tripinfo_85" vType="type1" speedFactor="1.05" vaporized=""/>
    <tripinfo id="76" depart="00:02:32.00" departLane="A1A2_0" departPos="5.10" departSpeed="0.00" departDelay="00:00:00.00" arrival="00:04:09.25" arrivalLane="D2D1_0" arrivalPos="79.20" arrivalSpeed="4.99" duration="00:01:37.25" routeLength="450.56" waitingTime="00:00:01.10" waitingCount="2" stopTime="00:00:00.00" timeLoss="00:00:07.13" rerouteNo="0" devices="tripinfo_76" vType="type1" speedFactor="0.97" vaporized=""/>
    <tripinfo id="77" depart="00:02:34.00" departLane="C3C4_0" departPos="5.10" departSpeed="0.00" departDelay="00:00:00.00" arrival="00:04:21.85" arrivalLane="C1C0_0" arrivalPos="79.20" arrivalSpeed="4.98" duration="00:01:47.85" routeLength="457.97" waitingTime="00:00:07.20" waitingCount="3" stopTime="00:00:00.00" timeLoss="00:00:15.94" rerouteNo="0" devices="tripinfo_77" vType="type1" speedFactor="1.04" vaporized=""/>
    <tripinfo id="115" depart="00:03:50.00" departLane="C1C2_0" departPos="5.10" departSpeed="0.00" departDelay="00:00:00.00" arrival="00:04:27.30" arrivalLane="C2C3_0" arrivalPos="79.20" arrivalSpeed="5.00" duration="00:00:37.30" routeLength="174.10" waitingTime="00:00:00.05" waitingCount="1" stopTime="00:00:00.00" timeLoss="00:00:02.47" rerouteNo="0" devices="tripinfo_115" vType="type1" speedFactor="1.04" vaporized=""/>
    <tripinfo id="109" depart="00:03:38.40" departLane="D0C0_0" departPos="5.10" departSpeed="0.00" departDelay="00:00:00.40" arrival="00:04:33.10" arrivalLane="A3A4_0" arrivalPos="83.20" arrivalSpeed="15.67" duration="00:00:54.70" routeLength="667.88" waitingTime="00:00:00.00" waitingCount="0" stopTime="00:00:00.00" timeLoss="00:00:11.69" rerouteNo="0" devices="tripinfo_109" vType="type2" speedFactor="1.13" vaporized=""/>
    <tripinfo id="92" depart="00:03:04.00" departLane="D1E1_0" departPos="5.10" departSpeed="0.00" departDelay="00:00:00.00" arrival="00:04:36.45" arrivalLane="C2C3_0" arrivalPos="79.20" arrivalSpeed="4.97" duration="00:01:32.45" routeLength="446.20" waitingTime="00:00:00.05" waitingCount="1" stopTime="00:00:00.00" timeLoss="00:00:02.90" rerouteNo="0" devices="tripinfo_92" vType="type1" speedFactor="1.02" vaporized=""/>
    <tripinfo id="125" depart="00:04:10.00" departLane="A4B4_0" departPos="5.10" departSpeed="0.00" departDelay="00:00:00.00" arrival="00:04:44.65" arrivalLane="D4E4_0" arrivalPos="83.20" arrivalSpeed="11.28" duration="00:00:34.65" routeLength="382.10" waitingTime="00:00:00.00" waitingCount="0" stopTime="00:00:00.00" timeLoss="00:00:04.56" rerouteNo="0" devices="tripinfo_125" vType="type2" speedFactor="0.91" vaporized=""/>
    <tripinfo id="56" depart="00:01:52.00" departLane="A3A4_0" departPos="5.10" departSpeed="0.00" departDelay="00:00:00.00" arrival="00:04:50.60" arrivalLane="D1D0_0" arrivalPos="79.20" arrivalSpeed="4.97" duration="00:02:58.60" routeLength="752.11" waitingTime="00:00:06.40" waitingCount="11" stopTime="00:00:00.00" timeLoss="00:00:28.07" rerouteNo="0" devices="tripinfo_56" vType="type1" speedFactor="1.06" vaporized=""/>
    <tripinfo id="58" depart="00:01:56.00" departLane="B3A3_0" departPos="5.10" departSpeed="0.00" departDelay="00:00:00.00" arrival="00:04:50.90" arrivalLane="D0E0_0" arrivalPos="83.20" arrivalSpeed="4.99" duration="00:02:54.90" routeLength="781.91" waitingTime="00:00:08.05" waitingCount="3" stopTime="00:00:00.00" timeLoss="00:00:18.52" rerouteNo="0" devices="tripinfo_58" vType="type1" speedFactor="0.96" vaporized=""/>
    <tripinfo id="118" depart="00:03:56.00" departLane="D0E0_0" departPos="5.10" departSpeed="0.00" departDelay="00:00:00.00" arrival="00:05:01.25" arrivalLane="C4D4_1" arrivalPos="79.20" arrivalSpeed="13.93" duration="00:01:05.25" routeLength="768.50" waitingTime="00:00:00.00" waitingCount="0" stopTime="00:00:00.00" timeLoss="00:00:08.25" rerouteNo="0" devices="tripinfo_118" vType="type2" speedFactor="1.01" vaporized=""/>
    <tripinfo id="107" depart="00:03:34.00" departLane="D2C2_0" departPos="5.10" departSpeed="0.00" departDelay="00:00:00.00" arrival="00:05:12.15" arrivalLane="D0C0_0" arrivalPos="79.20" arrivalSpeed="5.00" duration="00:01:38.15" routeLength="434.43" waitingTime="00:00:05.30" waitingCount="2" stopTime="00:00:00.00" timeLoss="00:00:10.98" rerouteNo="0" devices="tripinfo_107" vType="type1" speedFactor="1.06" vaporized=""/>
    <tripinfo id="133" depart="00:04:26.00" departLane="D0E0_0" departPos="5.10" departSpeed="0.00" departDelay="00:00:00.00" arrival="00:05:21.60" arrivalLane="C2D2_0" arrivalPos="79.20" arrivalSpeed="7.64" duration="00:00:55.60" routeLength="554.38" waitingTime="00:00:00.00" waitingCount="0" stopTime="00:00:00.00" timeLoss="00:00:16.66" rerouteNo="0" devices="tripinfo_133" vType="type2" speedFactor="1.09" vaporized=""/>
    <tripinfo id="93" depart="00:03:07.80" departLane="D1E1_0" departPos="5.10" departSpeed="0.00" departDelay="00:00:01.80" arrival="00:05:26.15" arrivalLane="C4B4_0" arrivalPos="79.20" arrivalSpeed="4.99" duration="00:02:18.35" routeLength="677.91" waitingTime="00:00:00.05" waitingCount="1" stopTime="00:00:00.00" timeLoss="00:00:02.77" rerouteNo="0" devices="tripinfo_93" vType="type1" speedFactor="1.01" vaporized=""/>
    <tripinfo id="134" depart="00:04:31.90" departLane="E4D4_0" departPos="5.10" departSpeed="0.00" departDelay="00:00:03.90" arrival="00:05:32.35" arrivalLane="A2B2_1" arrivalPos="79.20" arrivalSpeed="13.63" duration="00:01:00.45" routeLength="681.92" waitingTime="00:00:00.00" waitingCount="0" stopTime="00:00:00.00" timeLoss="00:00:09.37" rerouteNo="0" devices="tripinfo_134" vType="type2" speedFactor="0.98" vaporized=""/>
    <tripinfo id="140" depart="00:04:40.00" departLane="C1C0_0" departPos="5.10" departSpeed="0.00" departDelay="00:00:00.00" arrival="00:05:36.85" arrivalLane="D0D1_1" arrivalPos="79.20" arrivalSpeed="5.00" duration="00:00:56.85" routeLength="271.21" waitingTime="00:00:00.05" waitingCount="1" stopTime="00:00:00.00" timeLoss="00:00:02.60" rerouteNo="0" devices="tripinfo_140" vType="type1" speedFactor="0.96" vaporized=""/>
    <tripinfo id="103" depart="00:03:26.00" departLane="C0D0_0" departPos="5.10" departSpeed="0.00" departDelay="00:00:00.00" arrival="00:05:39.20" arrivalLane="A2A3_0" arrivalPos="79.20" arrivalSpeed="4.99" duration="00:02:13.20" routeLength="647.76" waitingTime="00:00:00.05" waitingCount="1" stopTime="00:00:00.00" timeLoss="00:00:03.18" rerouteNo="0" devices="tripinfo_103" vType="type1" speedFactor="1.01" vaporized=""/>
    <tripinfo id="145" depart="00:04:50.00" departLane="E2D2_0" departPos="5.10" departSpeed="0.00" departDelay="00:00:00.00" arrival="00:05:44.95" arrivalLane="C2C3_0" arrivalPos="79.20" arrivalSpeed="5.00" duration="00:00:54.95" routeLength="262.33" waitingTime="00:00:00.05" waitingCount="1" stopTime="00:00:00.00" timeLoss="00:00:02.47" rerouteNo="0" devices="tripinfo_145" vType="type1" speedFactor="1.05" vaporized=""/>
    <tripinfo id="137" depart="00:04:34.00" departLane="C2D2_0" departPos="5.10" departSpeed="0.00" departDelay="00:00:00.00" arrival="00:05:46.20" arrivalLane="E3D3_0" arrivalPos="79.20" arrivalSpeed="4.99" duration="00:01:12.20" routeLength="344.75" waitingTime="00:00:00.05" waitingCount="1" stopTime="00:00:00.00" timeLoss="00:00:02.92" rerouteNo="0" devices="tripinfo_137" vType="type1" speedFactor="1.01" vaporized=""/>
    <tripinfo id="131" depart="00:04:22.00" departLane="A2B2_0" departPos="5.10" departSpeed="0.00" departDelay="00:00:00.00" arrival="00:05:54.55" arrivalLane="D1D2_0" arrivalPos="79.20" arrivalSpeed="4.98" duration="00:01:32.55" routeLength="446.21" waitingTime="00:00:00.05" waitingCount="1" stopTime="00:00:00.00" timeLoss="00:00:02.95" rerouteNo="0" devices="tripinfo_131" vType="type1" speedFactor="0.98" vaporized=""/>
    <tripinfo id="166" depart="00:05:32.00" departLane="D0D1_0" departPos="5.10" departSpeed="0.00" departDelay="00:00:00.00" arrival="00:05:59.55" arrivalLane="C1C0_1" arrivalPos="79.20" arrivalSpeed="13.83" duration="00:00:27.55" routeLength="271.21" waitingTime="00:00:00.00" waitingCount="0" stopTime="00:00:00.00" timeLoss="00:00:06.61" rerouteNo="0" devices="tripinfo_166" vType="type2" speedFactor="1.00" vaporized=""/>
    <tripinfo id="14" depart="00:00:28.00" departLane="B1B0_0" departPos="5.10" departSpeed="0.00" departDelay="00:00:00.00" arrival="00:06:01.75" arrivalLane="E1E0_0" arrivalPos="83.20" arrivalSpeed="15.01" duration="00:05:33.75" routeLength="538.43" waitingTime="00:04:37.80" waitingCount="1" stopTime="00:00:00.00" timeLoss="00:04:55.67" rerouteNo="0" devices="tripinfo_14" vType="type2" speedFactor="1.08" vaporized=""/>
    <tripinfo id="141" depart="00:04:42.00" departLane="D2D1_0" departPos="5.10" departSpeed="0.00" departDelay="00:00:00.00" arrival="00:06:03.30" arrivalLane="D3D4_0" arrivalPos="79.20" arrivalSpeed="4.98" duration="00:01:21.30" routeLength="357.98" waitingTime="00:00:03.50" waitingCount="2" stopTime="00:00:00.00" timeLoss="00:00:09.29" rerouteNo="0" devices="tripinfo_141" vType="type1" speedFactor="0.95" vaporized=""/>
    <tripinfo id="172" depart="00:05:45.25" departLane="C2C3_0" departPos="5.10" departSpeed="0.00" departDelay="00:00:01.25" arrival="00:06:04.95" arrivalLane="C3C2_1" arrivalPos="79.20" arrivalSpeed="11.80" duration="00:00:19.70" routeLength="157.98" waitingTime="00:00:00.00" waitingCount="0" stopTime="00:00:00.00" timeLoss="00:00:05.20" rerouteNo="0" devices="tripinfo_172" vType="type2" speedFactor="0.85" vaporized=""/>
    <tripinfo id="99" depart="00:03:18.00" departLane="E2E1_0" departPos="5.10" departSpeed="0.00" departDelay="00:00:00.00" arrival="00:06:07.95" arrivalLane="D1D0_0" arrivalPos="79.20" arrivalSpeed="4.98" duration="00:02:49.95" routeLength="260.88" waitingTime="00:01:49.25" waitingCount="2" stopTime="00:00:00.00" timeLoss="00:01:57.77" rerouteNo="0" devices="tripinfo_99" vType="type1" speedFactor="1.02" vaporized=""/>
    <tripinfo id="8" depart="00:00:16.00" departLane="D2D1_0" departPos="5.10" departSpeed="0.00" departDelay="00:00:00.00" arrival="00:06:10.45" arrivalLane="D0D1_0" arrivalPos="79.20" arrivalSpeed="4.97" duration="00:05:54.45" routeLength="257.97" waitingTime="00:05:00.10" waitingCount="2" stopTime="00:00:00.00" timeLoss="00:05:03.45" rerouteNo="0" devices="tripinfo_8" vType="type1" speedFactor="0.96" vaporized=""/>
    <tripinfo id="178" depart="00:05:56.00" departLane="A4B4_0" departPos="5.10" departSpeed="0.00" departDelay="00:00:00.00" arrival="00:06:14.05" arrivalLane="A4B4_0" arrivalPos="83.20" arrivalSpeed="4.98" duration="00:00:18.05" routeLength="78.10" waitingTime="00:00:00.05" waitingCount="1" stopTime="00:00:00.00" timeLoss="00:00:02.43" rerouteNo="0" devices="tripinfo_178" vType="type1" speedFactor="0.95" vaporized=""/>
    <tripinfo id="123" depart="00:04:06.00" departLane="E1E0_0" departPos="5.10" departSpeed="0.00" departDelay="00:00:00.00" arrival="00:06:14.70" arrivalLane="E3E2_0" arrivalPos="79.20" arrivalSpeed="4.98" duration="00:02:08.70" routeLength="628.57" waitingTime="00:00:00.05" waitingCount="1" stopTime="00:00:00.00" timeLoss="00:00:02.87" rerouteNo="0" devices="tripinfo_123" vType="type1" speedFactor="1.06" vaporized=""/>
    <tripinfo id="173" depart="00:05:46.00" departLane="C0D0_0" departPos="5.10" departSpeed="0.00" departDelay="00:00:00.00" arrival="00:06:15.60" arrivalLane="C0B0_0" arrivalPos="79.20" arrivalSpeed="14.45" duration="00:00:29.60" routeLength="257.98" waitingTime="00:00:00.00" waitingCount="0" stopTime="00:00:00.00" timeLoss="00:00:10.86" rerouteNo="0" devices="tripinfo_173" vType="type2" speedFactor="1.04" vaporized=""/>