<?xml version="1.0" encoding="UTF-8"?>

<!-- generated on Sat Feb 22 04:05:28 2020 by Eclipse SUMO GUI Version 1.2.0
<configuration xmlns:xsi="http://www.w3.org/2001/XMLSchema-instance" xsi:noNamespaceSchemaLocation="http://sumo.dlr.de/xsd/sumoConfiguration.xsd">

    <input>
        <net-file value="SUMO/ARR1.net.xml"/>
        <route-files value="SUMO/ARR1.rou.xml"/>
    </input>

    <output>
        <write-license value="true"/>
        <human-readable-time value="true"/>
        <summary-output value="SUMO/results/summaryOutput25car.txt"/>
        <tripinfo-output value="SUMO/results/tripInfo25car.txt"/>
    </output>

    <time>
        <begin value="00.0"/>
        <step-length value="0.15"/>
    </time>

    <processing>
        <lateral-resolution value="0.8"/>
        <route-steps value="250"/>
    </processing>

    <report>
        <verbose value="true"/>
        <duration-log.statistics value="true"/>
        <no-step-log value="true"/>
    </report>

    <traci_server>
        <remote-port value="54908"/>
    </traci_server>

    <gui_only>
        <gui-settings-file value="SUMO/ARR1.settings.xml"/>
        <quit-on-end value="true"/>
        <start value="true"/>
        <tracker-interval value="0.15"/>
    </gui_only>

</configuration>
-->

<summary xmlns:xsi="http://www.w3.org/2001/XMLSchema-instance" xsi:noNamespaceSchemaLocation="http://sumo.dlr.de/xsd/summary_file.xsd">
    <step time="00:00:00.00" loaded="1" inserted="0" running="0" waiting="0" ended="0" arrived="0" collisions="0" teleports="0" halting="0" meanWaitingTime="-1.00" meanTravelTime="-1.00" meanSpeed="-1.00" meanSpeedRelative="-1.00" duration="1582344328367"/>
    <step time="00:00:00.15" loaded="1" inserted="0" running="0" waiting="0" ended="0" arrived="0" collisions="0" teleports="0" halting="0" meanWaitingTime="-1.00" meanTravelTime="-1.00" meanSpeed="-1.00" meanSpeedRelative="-1.00" duration="1582344328415"/>
    <step time="00:00:00.30" loaded="1" inserted="0" running="0" waiting="0" ended="0" arrived="0" collisions="0" teleports="0" halting="0" meanWaitingTime="-1.00" meanTravelTime="-1.00" meanSpeed="-1.00" meanSpeedRelative="-1.00" duration="1582344328462"/>
    <step time="00:00:00.45" loaded="1" inserted="0" running="0" waiting="0" ended="0" arrived="0" collisions="0" teleports="0" halting="0" meanWaitingTime="-1.00" meanTravelTime="-1.00" meanSpeed="-1.00" meanSpeedRelative="-1.00" duration="1582344328508"/>
    <step time="00:00:00.60" loaded="1" inserted="0" running="0" waiting="0" ended="0" arrived="0" collisions="0" teleports="0" halting="0" meanWaitingTime="-1.00" meanTravelTime="-1.00" meanSpeed="-1.00" meanSpeedRelative="-1.00" duration="1582344328555"/>
    <step time="00:00:00.75" loaded="1" inserted="0" running="0" waiting="0" ended="0" arrived="0" collisions="0" teleports="0" halting="0" meanWaitingTime="-1.00" meanTravelTime="-1.00" meanSpeed="-1.00" meanSpeedRelative="-1.00" duration="1582344328605"/>
    <step time="00:00:00.90" loaded="1" inserted="0" running="0" waiting="0" ended="0" arrived="0" collisions="0" teleports="0" halting="0" meanWaitingTime="-1.00" meanTravelTime="-1.00" meanSpeed="-1.00" meanSpeedRelative="-1.00" duration="1582344328655"/>
    <step time="00:00:01.05" loaded="1" inserted="0" running="0" waiting="0" ended="0" arrived="0" collisions="0" teleports="0" halting="0" meanWaitingTime="-1.00" meanTravelTime="-1.00" meanSpeed="-1.00" meanSpeedRelative="-1.00" duration="1582344328703"/>
    <step time="00:00:01.20" loaded="1" inserted="0" running="0" waiting="0" ended="0" arrived="0" collisions="0" teleports="0" halting="0" meanWaitingTime="-1.00" meanTravelTime="-1.00" meanSpeed="-1.00" meanSpeedRelative="-1.00" duration="1582344328754"/>
    <step time="00:00:01.35" loaded="1" inserted="0" running="0" waiting="0" ended="0" arrived="0" collisions="0" teleports="0" halting="0" meanWaitingTime="-1.00" meanTravelTime="-1.00" meanSpeed="-1.00" meanSpeedRelative="-1.00" duration="1582344328798"/>
    <step time="00:00:01.50" loaded="1" inserted="0" running="0" waiting="0" ended="0" arrived="0" collisions="0" teleports="0" halting="0" meanWaitingTime="-1.00" meanTravelTime="-1.00" meanSpeed="-1.00" meanSpeedRelative="-1.00" duration="1582344328844"/>
    <step time="00:00:01.65" loaded="1" inserted="0" running="0" waiting="0" ended="0" arrived="0" collisions="0" teleports="0" halting="0" meanWaitingTime="-1.00" meanTravelTime="-1.00" meanSpeed="-1.00" meanSpeedRelative="-1.00" duration="1582344328893"/>
    <step time="00:00:01.80" loaded="1" inserted="0" running="0" waiting="0" ended="0" arrived="0" collisions="0" teleports="0" halting="0" meanWaitingTime="-1.00" meanTravelTime="-1.00" meanSpeed="-1.00" meanSpeedRelative="-1.00" duration="1582344328943"/>
    <step time="00:00:01.95" loaded="1" inserted="1" running="1" waiting="0" ended="0" arrived="0" collisions="0" teleports="0" halting="1" meanWaitingTime="0.00" meanTravelTime="-1.00" meanSpeed="0.00" meanSpeedRelative="0.00" duration="1582344328993"/>
    <step time="00:00:02.10" loaded="55" inserted="1" running="1" waiting="0" ended="0" arrived="0" collisions="0" teleports="0" halting="0" meanWaitingTime="0.00" meanTravelTime="-1.00" meanSpeed="13.09" meanSpeedRelative="0.94" duration="1582344329069"/>
    <step time="00:00:02.25" loaded="55" inserted="1" running="1" waiting="0" ended="0" arrived="0" collisions="0" teleports="0" halting="0" meanWaitingTime="0.00" meanTravelTime="-1.00" meanSpeed="12.95" meanSpeedRelative="0.93" duration="1582344329101"/>
    <step time="00:00:02.40" loaded="55" inserted="1" running="1" waiting="0" ended="0" arrived="0" collisions="0" teleports="0" halting="0" meanWaitingTime="0.00" meanTravelTime="-1.00" meanSpeed="13.34" meanSpeedRelative="0.96" duration="1582344329154"/>
    <step time="00:00:02.55" loaded="55" inserted="1" running="1" waiting="0" ended="0" arrived="0" collisions="0" teleports="0" halting="0" meanWaitingTime="0.00" meanTravelTime="-1.00" meanSpeed="13.48" meanSpeedRelative="0.97" duration="1582344329199"/>
    <step time="00:00:02.70" loaded="55" inserted="1" running="1" waiting="0" ended="0" arrived="0" collisions="0" teleports="0" halting="0" meanWaitingTime="0.00" meanTravelTime="-1.00" meanSpeed="12.83" meanSpeedRelative="0.92" duration="1582344329253"/>
    <step time="00:00:02.85" loaded="55" inserted="1" running="1" waiting="0" ended="0" arrived="0" collisions="0" teleports="0" halting="0" meanWaitingTime="0.00" meanTravelTime="-1.00" meanSpeed="13.35" meanSpeedRelative="0.96" duration="1582344329299"/>
    <step time="00:00:03.00" loaded="55" inserted="1" running="1" waiting="0" ended="0" arrived="0" collisions="0" teleports="0" halting="0" meanWaitingTime="0.00" meanTravelTime="-1.00" meanSpeed="12.86" meanSpeedRelative="0.93" duration="1582344329352"/>
    <step time="00:00:03.15" loaded="55" inserted="1" running="1" waiting="0" ended="0" arrived="0" collisions="0" teleports="0" halting="0" meanWaitingTime="0.00" meanTravelTime="-1.00" meanSpeed="12.78" meanSpeedRelative="0.92" duration="1582344329399"/>
    <step time="00:00:03.30" loaded="55" inserted="1" running="1" waiting="0" ended="0" arrived="0" collisions="0" teleports="0" halting="0" meanWaitingTime="0.00" meanTravelTime="-1.00" meanSpeed="13.45" meanSpeedRelative="0.97" duration="1582344329443"/>
    <step time="00:00:03.45" loaded="55" inserted="1" running="1" waiting="0" ended="0" arrived="0" collisions="0" teleports="0" halting="0" meanWaitingTime="0.00" meanTravelTime="-1.00" meanSpeed="12.76" meanSpeedRelative="0.92" duration="1582344329503"/>
    <step time="00:00:03.60" loaded="55" inserted="1" running="1" waiting="0" ended="0" arrived="0" collisions="0" teleports="0" halting="0" meanWaitingTime="0.00" meanTravelTime="-1.00" meanSpeed="13.52" meanSpeedRelative="0.97" duration="1582344329532"/>
    <step time="00:00:03.75" loaded="55" inserted="1" running="1" waiting="0" ended="0" arrived="0" collisions="0" teleports="0" halting="0" meanWaitingTime="0.00" meanTravelTime="-1.00" meanSpeed="12.57" meanSpeedRelative="0.91" duration="1582344329580"/>
    <step time="00:00:03.90" loaded="55" inserted="1" running="1" waiting="0" ended="0" arrived="0" collisions="0" teleports="0" halting="0" meanWaitingTime="0.00" meanTravelTime="-1.00" meanSpeed="12.58" meanSpeedRelative="0.91" duration="1582344329629"/>
    <step time="00:00:04.05" loaded="55" inserted="1" running="1" waiting="0" ended="0" arrived="0" collisions="0" teleports="0" halting="0" meanWaitingTime="0.00" meanTravelTime="-1.00" meanSpeed="12.76" meanSpeedRelative="0.92" duration="1582344329671"/>
    <step time="00:00:04.20" loaded="55" inserted="1" running="1" waiting="0" ended="0" arrived="0" collisions="0" teleports="0" halting="0" meanWaitingTime="0.00" meanTravelTime="-1.00" meanSpeed="13.10" meanSpeedRelative="0.94" duration="1582344329707"/>
    <step time="00:00:04.35" loaded="55" inserted="1" running="1" waiting="0" ended="0" arrived="0" collisions="0" teleports="0" halting="0" meanWaitingTime="0.00" meanTravelTime="-1.00" meanSpeed="13.02" meanSpeedRelative="0.94" duration="1582344329758"/>
    <step time="00:00:04.50" loaded="55" inserted="1" running="1" waiting="0" ended="0" arrived="0" collisions="0" teleports="0" halting="0" meanWaitingTime="0.00" meanTravelTime="-1.00" meanSpeed="12.82" meanSpeedRelative="0.92" duration="1582344329808"/>
    <step time="00:00:04.65" loaded="55" inserted="1" running="1" waiting="0" ended="0" arrived="0" collisions="0" teleports="0" halting="0" meanWaitingTime="0.00" meanTravelTime="-1.00" meanSpeed="13.30" meanSpeedRelative="0.96" duration="1582344329849"/>
    <step time="00:00:04.80" loaded="55" inserted="1" running="1" waiting="0" ended="0" arrived="0" collisions="0" teleports="0" halting="0" meanWaitingTime="0.00" meanTravelTime="-1.00" meanSpeed="12.96" meanSpeedRelative="0.93" duration="1582344329897"/>
    <step time="00:00:04.95" loaded="55" inserted="1" running="1" waiting="0" ended="0" arrived="0" collisions="0" teleports="0" halting="0" meanWaitingTime="0.00" meanTravelTime="-1.00" meanSpeed="12.79" meanSpeedRelative="0.92" duration="1582344329948"/>
    <step time="00:00:05.10" loaded="55" inserted="1" running="1" waiting="0" ended="0" arrived="0" collisions="0" teleports="0" halting="0" meanWaitingTime="0.00" meanTravelTime="-1.00" meanSpeed="12.62" meanSpeedRelative="0.91" duration="1582344329985"/>
    <step time="00:00:05.25" loaded="55" inserted="1" running="1" waiting="0" ended="0" arrived="0" collisions="0" teleports="0" halting="0" meanWaitingTime="0.00" meanTravelTime="-1.00" meanSpeed="13.46" meanSpeedRelative="0.97" duration="1582344330028"/>
    <step time="00:00:05.40" loaded="55" inserted="1" running="1" waiting="0" ended="0" arrived="0" collisions="0" teleports="0" halting="0" meanWaitingTime="0.00" meanTravelTime="-1.00" meanSpeed="12.75" meanSpeedRelative="0.92" duration="1582344330075"/>
    <step time="00:00:05.55" loaded="55" inserted="1" running="1" waiting="0" ended="0" arrived="0" collisions="0" teleports="0" halting="0" meanWaitingTime="0.00" meanTravelTime="-1.00" meanSpeed="12.61" meanSpeedRelative="0.91" duration="1582344330117"/>
    <step time="00:00:05.70" loaded="55" inserted="1" running="1" waiting="0" ended="0" arrived="0" collisions="0" teleports="0" halting="0" meanWaitingTime="0.00" meanTravelTime="-1.00" meanSpeed="13.05" meanSpeedRelative="0.94" duration="1582344330163"/>
    <step time="00:00:05.85" loaded="55" inserted="1" running="1" waiting="0" ended="0" arrived="0" collisions="0" teleports="0" halting="0" meanWaitingTime="0.00" meanTravelTime="-1.00" meanSpeed="13.16" meanSpeedRelative="0.95" duration="1582344330210"/>
    <step time="00:00:06.00" loaded="55" inserted="1" running="1" waiting="0" ended="0" arrived="0" collisions="0" teleports="0" halting="0" meanWaitingTime="0.00" meanTravelTime="-1.00" meanSpeed="12.86" meanSpeedRelative="0.93" duration="1582344330259"/>
    <step time="00:00:06.15" loaded="55" inserted="1" running="1" waiting="0" ended="0" arrived="0" collisions="0" teleports="0" halting="0" meanWaitingTime="0.00" meanTravelTime="-1.00" meanSpeed="13.54" meanSpeedRelative="0.97" duration="1582344330306"/>
    <step time="00:00:06.30" loaded="55" inserted="1" running="1" waiting="0" ended="0" arrived="0" collisions="0" teleports="0" halting="0" meanWaitingTime="0.00" meanTravelTime="-1.00" meanSpeed="12.92" meanSpeedRelative="0.93" duration="1582344330353"/>
    <step time="00:00:06.45" loaded="55" inserted="1" running="1" waiting="0" ended="0" arrived="0" collisions="0" teleports="0" halting="0" meanWaitingTime="0.00" meanTravelTime="-1.00" meanSpeed="12.80" meanSpeedRelative="0.92" duration="1582344330398"/>
    <step time="00:00:06.60" loaded="55" inserted="1" running="1" waiting="0" ended="0" arrived="0" collisions="0" teleports="0" halting="0" meanWaitingTime="0.00" meanTravelTime="-1.00" meanSpeed="12.79" meanSpeedRelative="0.92" duration="1582344330452"/>
    <step time="00:00:06.75" loaded="55" inserted="1" running="1" waiting="0" ended="0" arrived="0" collisions="0" teleports="0" halting="0" meanWaitingTime="0.00" meanTravelTime="-1.00" meanSpeed="13.21" meanSpeedRelative="0.95" duration="1582344330495"/>
    <step time="00:00:06.90" loaded="55" inserted="1" running="1" waiting="0" ended="0" arrived="0" collisions="0" teleports="0" halting="0" meanWaitingTime="0.00" meanTravelTime="-1.00" meanSpeed="13.29" meanSpeedRelative="0.96" duration="1582344330541"/>
    <step time="00:00:07.05" loaded="55" inserted="1" running="1" waiting="0" ended="0" arrived="0" collisions="0" teleports="0" halting="0" meanWaitingTime="0.00" meanTravelTime="-1.00" meanSpeed="13.45" meanSpeedRelative="0.97" duration="1582344330581"/>
    <step time="00:00:07.20" loaded="55" inserted="1" running="1" waiting="0" ended="0" arrived="0" collisions="0" teleports="0" halting="0" meanWaitingTime="0.00" meanTravelTime="-1.00" meanSpeed="13.02" meanSpeedRelative="0.94" duration="1582344330628"/>
    <step time="00:00:07.35" loaded="55" inserted="1" running="1" waiting="0" ended="0" arrived="0" collisions="0" teleports="0" halting="0" meanWaitingTime="0.00" meanTravelTime="-1.00" meanSpeed="12.02" meanSpeedRelative="0.87" duration="1582344330682"/>
    <step time="00:00:07.50" loaded="55" inserted="1" running="1" waiting="0" ended="0" arrived="0" collisions="0" teleports="0" halting="0" meanWaitingTime="0.00" meanTravelTime="-1.00" meanSpeed="10.97" meanSpeedRelative="0.79" duration="1582344330726"/>
    <step time="00:00:07.65" loaded="55" inserted="1" running="1" waiting="0" ended="0" arrived="0" collisions="0" teleports="0" halting="0" meanWaitingTime="0.00" meanTravelTime="-1.00" meanSpeed="9.92" meanSpeedRelative="0.71" duration="1582344330754"/>
    <step time="00:00:07.80" loaded="55" inserted="1" running="1" waiting="0" ended="0" arrived="0" collisions="0" teleports="0" halting="0" meanWaitingTime="0.00" meanTravelTime="-1.00" meanSpeed="8.87" meanSpeedRelative="0.64" duration="1582344330806"/>
    <step time="00:00:07.95" loaded="55" inserted="2" running="2" waiting="0" ended="0" arrived="0" collisions="0" teleports="0" halting="1" meanWaitingTime="0.00" meanTravelTime="-1.00" meanSpeed="3.94" meanSpeedRelative="0.28" duration="1582344330852"/>
    <step time="00:00:08.10" loaded="55" inserted="2" running="2" waiting="0" ended="0" arrived="0" collisions="0" teleports="0" halting="0" meanWaitingTime="0.00" meanTravelTime="-1.00" meanSpeed="6.96" meanSpeedRelative="0.50" duration="1582344330918"/>
    <step time="00:00:08.25" loaded="55" inserted="2" running="2" waiting="0" ended="0" arrived="0" collisions="0" teleports="0" halting="0" meanWaitingTime="0.00" meanTravelTime="-1.00" meanSpeed="7.15" meanSpeedRelative="0.51" duration="1582344330945"/>
    <step time="00:00:08.40" loaded="55" inserted="2" running="2" waiting="0" ended="0" arrived="0" collisions="0" teleports="0" halting="0" meanWaitingTime="0.00" meanTravelTime="-1.00" meanSpeed="7.32" meanSpeedRelative="0.53" duration="1582344330990"/>
    <step time="00:00:08.55" loaded="55" inserted="2" running="2" waiting="0" ended="0" arrived="0" collisions="0" teleports="0" halting="0" meanWaitingTime="0.00" meanTravelTime="-1.00" meanSpeed="7.22" meanSpeedRelative="0.52" duration="1582344331055"/>
    <step time="00:00:08.70" loaded="55" inserted="2" running="2" waiting="0" ended="0" arrived="0" collisions="0" teleports="0" halting="0" meanWaitingTime="0.00" meanTravelTime="-1.00" meanSpeed="7.56" meanSpeedRelative="0.54" duration="1582344331095"/>
    <step time="00:00:08.85" loaded="55" inserted="2" running="2" waiting="0" ended="0" arrived="0" collisions="0" teleports="0" halting="0" meanWaitingTime="0.00" meanTravelTime="-1.00" meanSpeed="7.25" meanSpeedRelative="0.52" duration="1582344331140"/>
    <step time="00:00:09.00" loaded="55" inserted="2" running="2" waiting="0" ended="0" arrived="0" collisions="0" teleports="0" halting="0" meanWaitingTime="0.00" meanTravelTime="-1.00" meanSpeed="7.77" meanSpeedRelative="0.56" duration="1582344331195"/>
    <step time="00:00:09.15" loaded="55" inserted="2" running="2" waiting="0" ended="0" arrived="0" collisions="0" teleports="0" halting="0" meanWaitingTime="0.00" meanTravelTime="-1.00" meanSpeed="7.52" meanSpeedRelative="0.54" duration="1582344331245"/>
    <step time="00:00:09.30" loaded="55" inserted="2" running="2" waiting="0" ended="0" arrived="0" collisions="0" teleports="0" halting="0" meanWaitingTime="0.00" meanTravelTime="-1.00" meanSpeed="7.60" meanSpeedRelative="0.55" duration="1582344331288"/>
    <step time="00:00:09.45" loaded="55" inserted="2" running="2" waiting="0" ended="0" arrived="0" collisions="0" teleports="0" halting="0" meanWaitingTime="0.00" meanTravelTime="-1.00" meanSpeed="8.05" meanSpeedRelative="0.58" duration="1582344331335"/>
    <step time="00:00:09.60" loaded="55" inserted="2" running="2" waiting="0" ended="0" arrived="0" collisions="0" teleports="0" halting="0" meanWaitingTime="0.00" meanTravelTime="-1.00" meanSpeed="8.02" meanSpeedRelative="0.58" duration="1582344331381"/>
    <step time="00:00:09.75" loaded="55" inserted="2" running="2" waiting="0" ended="0" arrived="0" collisions="0" teleports="0" halting="0" meanWaitingTime="0.00" meanTravelTime="-1.00" meanSpeed="8.54" meanSpeedRelative="0.61" duration="1582344331429"/>
    <step time="00:00:09.90" loaded="55" inserted="3" running="3" waiting="0" ended="0" arrived="0" collisions="0" teleports="0" halting="1" meanWaitingTime="0.00" meanTravelTime="-1.00" meanSpeed="5.80" meanSpeedRelative="0.42" duration="1582344331456"/>
    <step time="00:00:10.05" loaded="55" inserted="3" running="3" waiting="0" ended="0" arrived="0" collisions="0" teleports="0" halting="0" meanWaitingTime="0.00" meanTravelTime="-1.00" meanSpeed="11.20" meanSpeedRelative="0.81" duration="1582344331519"/>
    <step time="00:00:10.20" loaded="55" inserted="3" running="3" waiting="0" ended="0" arrived="0" collisions="0" teleports="0" halting="0" meanWaitingTime="0.00" meanTravelTime="-1.00" meanSpeed="11.42" meanSpeedRelative="0.82" duration="1582344331574"/>
    <step time="00:00:10.35" loaded="55" inserted="3" running="3" waiting="0" ended="0" arrived="0" collisions="0" teleports="0" halting="0" meanWaitingTime="0.00" meanTravelTime="-1.00" meanSpeed="11.29" meanSpeedRelative="0.81" duration="1582344331605"/>
    <step time="00:00:10.50" loaded="55" inserted="3" running="3" waiting="0" ended="0" arrived="0" collisions="0" teleports="0" halting="0" meanWaitingTime="0.00" meanTravelTime="-1.00" meanSpeed="11.51" meanSpeedRelative="0.83" duration="1582344331654"/>
    <step time="00:00:10.65" loaded="55" inserted="3" running="3" waiting="0" ended="0" arrived="0" collisions="0" teleports="0" halting="0" meanWaitingTime="0.00" meanTravelTime="-1.00" meanSpeed="11.03" meanSpeedRelative="0.79" duration="1582344331729"/>
    <step time="00:00:10.80" loaded="55" inserted="3" running="3" waiting="0" ended="0" arrived="0" collisions="0" teleports="0" halting="0" meanWaitingTime="0.00" meanTravelTime="-1.00" meanSpeed="11.25" meanSpeedRelative="0.81" duration="1582344331780"/>
    <step time="00:00:10.95" loaded="55" inserted="3" running="3" waiting="0" ended="0" arrived="0" collisions="0" teleports="0" halting="0" meanWaitingTime="0.00" meanTravelTime="-1.00" meanSpeed="11.41" meanSpeedRelative="0.82" duration="1582344331833"/>
    <step time="00:00:11.10" loaded="55" inserted="3" running="3" waiting="0" ended="0" arrived="0" collisions="0" teleports="0" halting="0" meanWaitingTime="0.00" meanTravelTime="-1.00" meanSpeed="11.47" meanSpeedRelative="0.83" duration="1582344331881"/>
    <step time="00:00:11.25" loaded="55" inserted="3" running="3" waiting="0" ended="0" arrived="0" collisions="0" teleports="0" halting="0" meanWaitingTime="0.00" meanTravelTime="-1.00" meanSpeed="11.31" meanSpeedRelative="0.81" duration="1582344331930"/>
    <step time="00:00:11.40" loaded="55" inserted="3" running="3" waiting="0" ended="0" arrived="0" collisions="0" teleports="0" halting="0" meanWaitingTime="0.00" meanTravelTime="-1.00" meanSpeed="11.49" meanSpeedRelative="0.83" duration="1582344331981"/>
    <step time="00:00:11.55" loaded="55" inserted="3" running="3" waiting="0" ended="0" arrived="0" collisions="0" teleports="0" halting="0" meanWaitingTime="0.00" meanTravelTime="-1.00" meanSpeed="11.37" meanSpeedRelative="0.82" duration="1582344332036"/>
    <step time="00:00:11.70" loaded="55" inserted="3" running="3" waiting="0" ended="0" arrived="0" collisions="0" teleports="0" halting="0" meanWaitingTime="0.00" meanTravelTime="-1.00" meanSpeed="11.21" meanSpeedRelative="0.81" duration="1582344332111"/>
    <step time="00:00:11.85" loaded="55" inserted="3" running="3" waiting="0" ended="0" arrived="0" collisions="0" teleports="0" halting="0" meanWaitingTime="0.00" meanTravelTime="-1.00" meanSpeed="11.21" meanSpeedRelative="0.81" duration="1582344332179"/>
    <step time="00:00:12.00" loaded="55" inserted="3" running="3" waiting="0" ended="0" arrived="0" collisions="0" teleports="0" halting="0" meanWaitingTime="0.00" meanTravelTime="-1.00" meanSpeed="11.59" meanSpeedRelative="0.83" duration="1582344332229"/>
    <step time="00:00:12.15" loaded="55" inserted="3" running="3" waiting="0" ended="0" arrived="0" collisions="0" teleports="0" halting="0" meanWaitingTime="0.00" meanTravelTime="-1.00" meanSpeed="11.35" meanSpeedRelative="0.82" duration="1582344332278"/>
    <step time="00:00:12.30" loaded="55" inserted="3" running="3" waiting="0" ended="0" arrived="0" collisions="0" teleports="0" halting="0" meanWaitingTime="0.00" meanTravelTime="-1.00" meanSpeed="11.30" meanSpeedRelative="0.81" duration="1582344332325"/>
    <step time="00:00:12.45" loaded="55" inserted="3" running="3" waiting="0" ended="0" arrived="0" collisions="0" teleports="0" halting="0" meanWaitingTime="0.00" meanTravelTime="-1.00" meanSpeed="11.42" meanSpeedRelative="0.82" duration="1582344332368"/>
    <step time="00:00:12.60" loaded="55" inserted="3" running="3" waiting="0" ended="0" arrived="0" collisions="0" teleports="0" halting="0" meanWaitingTime="0.00" meanTravelTime="-1.00" meanSpeed="11.33" meanSpeedRelative="0.82" duration="1582344332414"/>
    <step time="00:00:12.75" loaded="55" inserted="3" running="3" waiting="0" ended="0" arrived="0" collisions="0" teleports="0" halting="0" meanWaitingTime="0.00" meanTravelTime="-1.00" meanSpeed="11.16" meanSpeedRelative="0.80" duration="1582344332459"/>
    <step time="00:00:12.90" loaded="55" inserted="3" running="3" waiting="0" ended="0" arrived="0" collisions="0" teleports="0" halting="0" meanWaitingTime="0.00" meanTravelTime="-1.00" meanSpeed="11.57" meanSpeedRelative="0.83" duration="1582344332507"/>
    <step time="00:00:13.05" loaded="55" inserted="3" running="3" waiting="0" ended="0" arrived="0" collisions="0" teleports="0" halting="0" meanWaitingTime="0.00" meanTravelTime="-1.00" meanSpeed="11.55" meanSpeedRelative="0.83" duration="1582344332553"/>
    <step time="00:00:13.20" loaded="55" inserted="3" running="3" waiting="0" ended="0" arrived="0" collisions="0" teleports="0" halting="0" meanWaitingTime="0.00" meanTravelTime="-1.00" meanSpeed="11.62" meanSpeedRelative="0.84" duration="1582344332600"/>
    <step time="00:00:13.35" loaded="55" inserted="3" running="3" waiting="0" ended="0" arrived="0" collisions="0" teleports="0" halting="0" meanWaitingTime="0.00" meanTravelTime="-1.00" meanSpeed="11.46" meanSpeedRelative="0.82" duration="1582344332648"/>
    <step time="00:00:13.50" loaded="55" inserted="3" running="3" waiting="0" ended="0" arrived="0" collisions="0" teleports="0" halting="0" meanWaitingTime="0.00" meanTravelTime="-1.00" meanSpeed="11.13" meanSpeedRelative="0.80" duration="1582344332691"/>
    <step time="00:00:13.65" loaded="55" inserted="3" running="3" waiting="0" ended="0" arrived="0" collisions="0" teleports="0" halting="0" meanWaitingTime="0.00" meanTravelTime="-1.00" meanSpeed="11.37" meanSpeedRelative="0.82" duration="1582344332737"/>
    <step time="00:00:13.80" loaded="55" inserted="3" running="3" waiting="0" ended="0" arrived="0" collisions="0" teleports="0" halting="0" meanWaitingTime="0.00" meanTravelTime="-1.00" meanSpeed="11.36" meanSpeedRelative="0.82" duration="1582344332800"/>
    <step time="00:00:13.95" loaded="55" inserted="4" running="4" waiting="0" ended="0" arrived="0" collisions="0" teleports="0" halting="1" meanWaitingTime="0.00" meanTravelTime="-1.00" meanSpeed="8.46" meanSpeedRelative="0.61" duration="1582344332848"/>
    <step time="00:00:14.10" loaded="55" inserted="4" running="4" waiting="0" ended="0" arrived="0" collisions="0" teleports="0" halting="0" meanWaitingTime="0.00" meanTravelTime="-1.00" meanSpeed="11.96" meanSpeedRelative="0.86" duration="1582344332931"/>
    <step time="00:00:14.25" loaded="55" inserted="4" running="4" waiting="0" ended="0" arrived="0" collisions="0" teleports="0" halting="0" meanWaitingTime="0.00" meanTravelTime="-1.00" meanSpeed="11.86" meanSpeedRelative="0.85" duration="1582344332998"/>
    <step time="00:00:14.40" loaded="55" inserted="4" running="4" waiting="0" ended="0" arrived="0" collisions="0" teleports="0" halting="0" meanWaitingTime="0.00" meanTravelTime="-1.00" meanSpeed="11.90" meanSpeedRelative="0.86" duration="1582344333068"/>
    <step time="00:00:14.55" loaded="55" inserted="4" running="4" waiting="0" ended="0" arrived="0" collisions="0" teleports="0" halting="0" meanWaitingTime="0.00" meanTravelTime="-1.00" meanSpeed="11.70" meanSpeedRelative="0.84" duration="1582344333130"/>
    <step time="00:00:14.70" loaded="55" inserted="4" running="4" waiting="0" ended="0" arrived="0" collisions="0" teleports="0" halting="0" meanWaitingTime="0.00" meanTravelTime="-1.00" meanSpeed="11.22" meanSpeedRelative="0.81" duration="1582344333189"/>
    <step time="00:00:14.85" loaded="55" inserted="4" running="4" waiting="0" ended="0" arrived="0" collisions="0" teleports="0" halting="0" meanWaitingTime="0.00" meanTravelTime="-1.00" meanSpeed="11.12" meanSpeedRelative="0.80" duration="1582344333248"/>
    <step time="00:00:15.00" loaded="55" inserted="4" running="4" waiting="0" ended="0" arrived="0" collisions="0" teleports="0" halting="0" meanWaitingTime="0.00" meanTravelTime="-1.00" meanSpeed="10.82" meanSpeedRelative="0.78" duration="1582344333326"/>
    <step time="00:00:15.15" loaded="55" inserted="4" running="4" waiting="0" ended="0" arrived="0" collisions="0" teleports="0" halting="0" meanWaitingTime="0.00" meanTravelTime="-1.00" meanSpeed="10.45" meanSpeedRelative="0.75" duration="1582344333401"/>
    <step time="00:00:15.30" loaded="55" inserted="4" running="4" waiting="0" ended="0" arrived="0" collisions="0" teleports="0" halting="0" meanWaitingTime="0.00" meanTravelTime="-1.00" meanSpeed="9.81" meanSpeedRelative="0.71" duration="1582344333469"/>
    <step time="00:00:15.45" loaded="55" inserted="4" running="4" waiting="0" ended="0" arrived="0" collisions="0" teleports="0" halting="0" meanWaitingTime="0.00" meanTravelTime="-1.00" meanSpeed="9.25" meanSpeedRelative="0.67" duration="1582344333533"/>
    <step time="00:00:15.60" loaded="55" inserted="4" running="4" waiting="0" ended="0" arrived="0" collisions="0" teleports="0" halting="0" meanWaitingTime="0.00" meanTravelTime="-1.00" meanSpeed="9.01" meanSpeedRelative="0.65" duration="1582344333599"/>
    <step time="00:00:15.75" loaded="55" inserted="4" running="4" waiting="0" ended="0" arrived="0" collisions="0" teleports="0" halting="0" meanWaitingTime="0.00" meanTravelTime="-1.00" meanSpeed="8.63" meanSpeedRelative="0.62" duration="1582344333696"/>
    <step time="00:00:15.90" loaded="55" inserted="5" running="5" waiting="0" ended="0" arrived="0" collisions="0" teleports="0" halting="1" meanWaitingTime="0.00" meanTravelTime="-1.00" meanSpeed="7.14" meanSpeedRelative="0.51" duration="1582344333765"/>
    <step time="00:00:16.05" loaded="55" inserted="5" running="5" waiting="0" ended="0" arrived="0" collisions="0" teleports="0" halting="0" meanWaitingTime="0.00" meanTravelTime="-1.00" meanSpeed="7.11" meanSpeedRelative="0.51" duration="1582344333838"/>
    <step time="00:00:16.20" loaded="55" inserted="5" running="5" waiting="0" ended="0" arrived="0" collisions="0" teleports="0" halting="0" meanWaitingTime="0.00" meanTravelTime="-1.00" meanSpeed="6.92" meanSpeedRelative="0.50" duration="1582344333926"/>
    <step time="00:00:16.35" loaded="55" inserted="5" running="5" waiting="0" ended="0" arrived="0" collisions="0" teleports="0" halting="0" meanWaitingTime="0.00" meanTravelTime="-1.00" meanSpeed="6.81" meanSpeedRelative="0.49" duration="1582344334011"/>
    <step time="00:00:16.50" loaded="55" inserted="5" running="5" waiting="0" ended="0" arrived="0" collisions="0" teleports="0" halting="0" meanWaitingTime="0.00" meanTravelTime="-1.00" meanSpeed="6.94" meanSpeedRelative="0.50" duration="1582344334112"/>