<?xml version="1.0" encoding="UTF-8"?>

<!-- generated on Sat Feb 22 04:05:28 2020 by Eclipse SUMO GUI Version 1.2.0
<configuration xmlns:xsi="http://www.w3.org/2001/XMLSchema-instance" xsi:noNamespaceSchemaLocation="http://sumo.dlr.de/xsd/sumoConfiguration.xsd">

    <input>
        <net-file value="SUMO/ARR1.net.xml"/>
        <route-files value="SUMO/ARR1.rou.xml"/>
    </input>

    <output>
        <write-license value="true"/>
        <human-readable-time value="true"/>
        <summary-output value="SUMO/results/summaryOutput25car.txt"/>
        <tripinfo-output value="SUMO/results/tripInfo25car.txt"/>
    </output>

    <time>
        <begin value="00.0"/>
        <step-length value="0.15"/>
    </time>

    <processing>
        <lateral-resolution value="0.8"/>
        <route-steps value="250"/>
    </processing>

    <report>
        <verbose value="true"/>
        <duration-log.statistics value="true"/>
        <no-step-log value="true"/>
    </report>

    <traci_server>
        <remote-port value="54908"/>
    </traci_server>

    <gui_only>
        <gui-settings-file value="SUMO/ARR1.settings.xml"/>
        <quit-on-end value="true"/>
        <start value="true"/>
        <tracker-interval value="0.15"/>
    </gui_only>

</configuration>
-->

<tripinfos xmlns:xsi="http://www.w3.org/2001/XMLSchema-instance" xsi:noNamespaceSchemaLocation="http://sumo.dlr.de/xsd/tripinfo_file.xsd">
    <tripinfo id="1" depart="00:00:01.95" departLane="C1B1_0" departPos="2.20" departPosLat="0.00" departSpeed="0.00" departDelay="0:0:-0.05" arrival="00:00:24.45" arrivalLane="A1A2_0" arrivalPos="86.40" arrivalPosLat="-0.40" arrivalSpeed="13.34" duration="00:00:22.50" routeLength="275.63" waitingTime="00:00:00.00" waitingCount="0" stopTime="00:00:00.00" timeLoss="00:00:01.32" rerouteNo="0" devices="tripinfo_1" vType="SPC" speedFactor="0.98" vaporized=""/>
    <tripinfo id="7" depart="00:00:13.95" departLane="B2C2_0" departPos="2.20" departPosLat="0.00" departSpeed="0.00" departDelay="0:0:-0.05" arrival="00:00:27.45" arrivalLane="C2C1_0" arrivalPos="86.40" arrivalPosLat="-0.40" arrivalSpeed="13.47" duration="00:00:13.50" routeLength="173.18" waitingTime="00:00:00.00" waitingCount="0" stopTime="00:00:00.00" timeLoss="00:00:01.09" rerouteNo="0" devices="tripinfo_7" vType="SPC" speedFactor="1.05" vaporized=""/>
    <tripinfo id="5" depart="00:00:09.90" departLane="A2B2_0" departPos="2.20" departPosLat="0.00" departSpeed="0.00" departDelay="0:0:-0.10" arrival="00:00:28.05" arrivalLane="B1B0_0" arrivalPos="82.40" arrivalPosLat="-0.40" arrivalSpeed="15.76" duration="00:00:18.15" routeLength="275.63" waitingTime="00:00:00.00" waitingCount="0" stopTime="00:00:00.00" timeLoss="00:00:01.02" rerouteNo="0" devices="tripinfo_5" vType="SPC" speedFactor="1.20" vaporized=""/>
    <tripinfo id="10" depart="00:00:19.95" departLane="B1B2_0" departPos="5.10" departPosLat="0.00" departSpeed="0.00" departDelay="0:0:-0.05" arrival="00:00:36.75" arrivalLane="B1B2_0" arrivalPos="82.40" arrivalPosLat="0.00" arrivalSpeed="4.84" duration="00:00:16.80" routeLength="77.30" waitingTime="00:00:00.00" waitingCount="0" stopTime="00:00:00.00" timeLoss="00:00:01.31" rerouteNo="0" devices="tripinfo_10" vType="passenger" speedFactor="1.02" vaporized=""/>
    <tripinfo id="12" depart="00:00:24.00" departLane="B2C2_0" departPos="2.20" departPosLat="0.00" departSpeed="0.00" departDelay="00:00:00.00" arrival="00:00:44.85" arrivalLane="C1C0_0" arrivalPos="86.40" arrivalPosLat="-0.40" arrivalSpeed="14.85" duration="00:00:20.85" routeLength="277.18" waitingTime="00:00:00.00" waitingCount="0" stopTime="00:00:00.00" timeLoss="00:00:02.13" rerouteNo="0" devices="tripinfo_12" vType="SPC" speedFactor="1.09" vaporized=""/>
    <tripinfo id="19" depart="00:00:37.95" departLane="B2B1_0" departPos="5.10" departPosLat="0.00" departSpeed="0.00" departDelay="0:0:-0.05" arrival="00:00:54.90" arrivalLane="B2B1_0" arrivalPos="82.40" arrivalPosLat="0.00" arrivalSpeed="4.86" duration="00:00:16.95" routeLength="77.30" waitingTime="00:00:00.00" waitingCount="0" stopTime="00:00:00.00" timeLoss="00:00:01.39" rerouteNo="0" devices="tripinfo_19" vType="passenger" speedFactor="0.99" vaporized=""/>
    <tripinfo id="24" depart="00:00:45.00" departLane="B1B0_0" departPos="2.20" departPosLat="0.00" departSpeed="0.00" departDelay="00:00:00.00" arrival="00:01:06.15" arrivalLane="A0A1_0" arrivalPos="86.40" arrivalPosLat="-0.40" arrivalSpeed="11.83" duration="00:00:21.15" routeLength="264.61" waitingTime="00:00:01.80" waitingCount="1" stopTime="00:00:00.00" timeLoss="00:00:04.93" rerouteNo="0" devices="tripinfo_24" vType="SPC" speedFactor="0.88" vaporized=""/>
    <tripinfo id="23" depart="00:00:45.30" departLane="B1B0_0" departPos="2.20" departPosLat="0.00" departSpeed="0.00" departDelay="00:00:00.30" arrival="00:01:12.90" arrivalLane="A0A1_0" arrivalPos="86.40" arrivalPosLat="-0.40" arrivalSpeed="12.87" duration="00:00:27.60" routeLength="264.61" waitingTime="00:00:01.35" waitingCount="1" stopTime="00:00:00.00" timeLoss="00:00:05.95" rerouteNo="0" devices="tripinfo_23" vType="SPC" speedFactor="0.94" vaporized=""/>
    <tripinfo id="9" depart="00:00:18.00" departLane="B1A1_0" departPos="2.20" departPosLat="0.00" departSpeed="0.00" departDelay="00:00:00.00" arrival="00:01:14.85" arrivalLane="A0A1_0" arrivalPos="86.40" arrivalPosLat="-0.40" arrivalSpeed="12.40" duration="00:00:56.85" routeLength="640.45" waitingTime="00:00:00.00" waitingCount="0" stopTime="00:00:00.00" timeLoss="00:00:04.30" rerouteNo="0" devices="tripinfo_9" vType="SPC" speedFactor="0.94" vaporized=""/>
</tripinfos>
