<?xml version="1.0" encoding="UTF-8"?>

<!-- generated on Wed Feb  5 12:06:49 2020 by Eclipse SUMO GUI Version 1.2.0
<configuration xmlns:xsi="http://www.w3.org/2001/XMLSchema-instance" xsi:noNamespaceSchemaLocation="http://sumo.dlr.de/xsd/sumoConfiguration.xsd">

    <input>
        <net-file value="singleRoad.net.xml"/>
        <route-files value="singleRoad.rou.xml"/>
    </input>

    <output>
        <write-license value="true"/>
        <human-readable-time value="true"/>
        <summary-output value="results/summaryOutput25car.txt"/>
        <tripinfo-output value="results/tripInfo25car.txt"/>
    </output>

    <time>
        <begin value="0"/>
        <step-length value="1"/>
    </time>

    <processing>
        <lateral-resolution value="1"/>
        <route-steps value="20"/>
    </processing>

    <report>
        <verbose value="true"/>
        <duration-log.statistics value="true"/>
        <no-step-log value="true"/>
    </report>

    <traci_server>
        <remote-port value="58471"/>
    </traci_server>

    <gui_only>
        <gui-settings-file value="settings.settings.xml"/>
        <quit-on-end value="true"/>
        <start value="false"/>
        <tracker-interval value="1"/>
    </gui_only>

</configuration>
-->

<summary xmlns:xsi="http://www.w3.org/2001/XMLSchema-instance" xsi:noNamespaceSchemaLocation="http://sumo.dlr.de/xsd/summary_file.xsd">
    <step time="00:00:00" loaded="3" inserted="2" running="2" waiting="1" ended="0" arrived="0" collisions="0" teleports="0" halting="2" meanWaitingTime="0.00" meanTravelTime="-1.00" meanSpeed="0.00" meanSpeedRelative="0.00" duration="1580904421748"/>
    <step time="00:00:01" loaded="3" inserted="2" running="2" waiting="1" ended="0" arrived="0" collisions="0" teleports="0" halting="0" meanWaitingTime="0.00" meanTravelTime="-1.00" meanSpeed="0.62" meanSpeedRelative="0.04" duration="1580904422048"/>
    <step time="00:00:02" loaded="3" inserted="2" running="2" waiting="1" ended="0" arrived="0" collisions="0" teleports="0" halting="0" meanWaitingTime="0.00" meanTravelTime="-1.00" meanSpeed="1.22" meanSpeedRelative="0.09" duration="1580904422348"/>
    <step time="00:00:03" loaded="3" inserted="2" running="2" waiting="1" ended="0" arrived="0" collisions="0" teleports="0" halting="0" meanWaitingTime="0.00" meanTravelTime="-1.00" meanSpeed="1.87" meanSpeedRelative="0.13" duration="1580904422648"/>
    <step time="00:00:04" loaded="3" inserted="3" running="3" waiting="0" ended="0" arrived="0" collisions="0" teleports="0" halting="1" meanWaitingTime="1.33" meanTravelTime="-1.00" meanSpeed="1.62" meanSpeedRelative="0.12" duration="1580904422953"/>
    <step time="00:00:05" loaded="3" inserted="3" running="3" waiting="0" ended="0" arrived="0" collisions="0" teleports="0" halting="0" meanWaitingTime="1.33" meanTravelTime="-1.00" meanSpeed="2.24" meanSpeedRelative="0.16" duration="1580904423257"/>
    <step time="00:00:06" loaded="3" inserted="3" running="3" waiting="0" ended="0" arrived="0" collisions="0" teleports="0" halting="0" meanWaitingTime="1.33" meanTravelTime="-1.00" meanSpeed="3.08" meanSpeedRelative="0.22" duration="1580904423562"/>
    <step time="00:00:07" loaded="3" inserted="3" running="3" waiting="0" ended="0" arrived="0" collisions="0" teleports="0" halting="0" meanWaitingTime="1.33" meanTravelTime="-1.00" meanSpeed="3.82" meanSpeedRelative="0.28" duration="1580904423865"/>
    <step time="00:00:08" loaded="3" inserted="3" running="3" waiting="0" ended="0" arrived="0" collisions="0" teleports="0" halting="0" meanWaitingTime="1.33" meanTravelTime="-1.00" meanSpeed="4.47" meanSpeedRelative="0.32" duration="1580904424165"/>
    <step time="00:00:09" loaded="3" inserted="3" running="3" waiting="0" ended="0" arrived="0" collisions="0" teleports="0" halting="0" meanWaitingTime="1.33" meanTravelTime="-1.00" meanSpeed="4.84" meanSpeedRelative="0.35" duration="1580904424471"/>
    <step time="00:00:10" loaded="3" inserted="3" running="3" waiting="0" ended="0" arrived="0" collisions="0" teleports="0" halting="0" meanWaitingTime="1.33" meanTravelTime="-1.00" meanSpeed="4.82" meanSpeedRelative="0.35" duration="1580904424775"/>
    <step time="00:00:11" loaded="3" inserted="3" running="3" waiting="0" ended="0" arrived="0" collisions="0" teleports="0" halting="0" meanWaitingTime="1.33" meanTravelTime="-1.00" meanSpeed="5.25" meanSpeedRelative="0.38" duration="1580904425077"/>
    <step time="00:00:12" loaded="3" inserted="3" running="3" waiting="0" ended="0" arrived="0" collisions="0" teleports="0" halting="0" meanWaitingTime="1.33" meanTravelTime="-1.00" meanSpeed="5.57" meanSpeedRelative="0.40" duration="1580904425380"/>
    <step time="00:00:13" loaded="3" inserted="3" running="3" waiting="0" ended="0" arrived="0" collisions="0" teleports="0" halting="0" meanWaitingTime="1.33" meanTravelTime="-1.00" meanSpeed="6.12" meanSpeedRelative="0.44" duration="1580904425681"/>
    <step time="00:00:14" loaded="3" inserted="3" running="3" waiting="0" ended="0" arrived="0" collisions="0" teleports="0" halting="0" meanWaitingTime="1.33" meanTravelTime="-1.00" meanSpeed="6.42" meanSpeedRelative="0.46" duration="1580904425986"/>
    <step time="00:00:15" loaded="3" inserted="3" running="3" waiting="0" ended="0" arrived="0" collisions="0" teleports="0" halting="0" meanWaitingTime="1.33" meanTravelTime="-1.00" meanSpeed="6.72" meanSpeedRelative="0.48" duration="1580904426288"/>
    <step time="00:00:16" loaded="3" inserted="3" running="3" waiting="0" ended="0" arrived="0" collisions="0" teleports="0" halting="0" meanWaitingTime="1.33" meanTravelTime="-1.00" meanSpeed="7.08" meanSpeedRelative="0.51" duration="1580904426591"/>
    <step time="00:00:17" loaded="3" inserted="3" running="3" waiting="0" ended="0" arrived="0" collisions="0" teleports="0" halting="0" meanWaitingTime="1.33" meanTravelTime="-1.00" meanSpeed="7.58" meanSpeedRelative="0.55" duration="1580904426894"/>
    <step time="00:00:18" loaded="3" inserted="3" running="2" waiting="0" ended="1" arrived="1" collisions="0" teleports="0" halting="0" meanWaitingTime="1.33" meanTravelTime="14.00" meanSpeed="4.83" meanSpeedRelative="0.35" duration="1580904427197"/>
    <step time="00:00:19" loaded="3" inserted="3" running="2" waiting="0" ended="1" arrived="1" collisions="0" teleports="0" halting="0" meanWaitingTime="1.33" meanTravelTime="14.00" meanSpeed="4.68" meanSpeedRelative="0.34" duration="1580904427501"/>
    <step time="00:00:20" loaded="3" inserted="3" running="2" waiting="0" ended="1" arrived="1" collisions="0" teleports="0" halting="0" meanWaitingTime="1.33" meanTravelTime="14.00" meanSpeed="4.86" meanSpeedRelative="0.35" duration="1580904427801"/>
    <step time="00:00:21" loaded="3" inserted="3" running="2" waiting="0" ended="1" arrived="1" collisions="0" teleports="0" halting="0" meanWaitingTime="1.33" meanTravelTime="14.00" meanSpeed="4.79" meanSpeedRelative="0.34" duration="1580904428106"/>
    <step time="00:00:22" loaded="3" inserted="3" running="2" waiting="0" ended="1" arrived="1" collisions="0" teleports="0" halting="0" meanWaitingTime="1.33" meanTravelTime="14.00" meanSpeed="4.85" meanSpeedRelative="0.35" duration="1580904428410"/>
    <step time="00:00:23" loaded="3" inserted="3" running="2" waiting="0" ended="1" arrived="1" collisions="0" teleports="0" halting="0" meanWaitingTime="1.33" meanTravelTime="14.00" meanSpeed="4.82" meanSpeedRelative="0.35" duration="1580904428715"/>
    <step time="00:00:24" loaded="3" inserted="3" running="0" waiting="0" ended="3" arrived="3" collisions="0" teleports="0" halting="0" meanWaitingTime="1.33" meanTravelTime="20.67" meanSpeed="-1.00" meanSpeedRelative="-1.00" duration="1580904429020"/>
    <step time="00:00:25" loaded="3" inserted="3" running="0" waiting="0" ended="3" arrived="3" collisions="0" teleports="0" halting="0" meanWaitingTime="1.33" meanTravelTime="20.67" meanSpeed="-1.00" meanSpeedRelative="-1.00" duration="1580904429322"/>
</summary>
