<?xml version="1.0" encoding="UTF-8"?>

<!-- generated on Tue Feb 11 19:13:46 2020 by Eclipse SUMO GUI Version 1.2.0
<configuration xmlns:xsi="http://www.w3.org/2001/XMLSchema-instance" xsi:noNamespaceSchemaLocation="http://sumo.dlr.de/xsd/sumoConfiguration.xsd">

    <input>
        <net-file value="SUMO/singleRoad.net.xml"/>
        <route-files value="SUMO/singleRoad.rou.xml"/>
    </input>

    <output>
        <write-license value="true"/>
        <human-readable-time value="true"/>
        <summary-output value="SUMO/results/summaryOutput25car.txt"/>
        <tripinfo-output value="SUMO/results/tripInfo25car.txt"/>
    </output>

    <time>
        <begin value="0"/>
        <step-length value="1"/>
    </time>

    <processing>
        <route-steps value="250"/>
    </processing>

    <report>
        <verbose value="true"/>
        <duration-log.statistics value="true"/>
        <no-step-log value="true"/>
    </report>

    <traci_server>
        <remote-port value="64060"/>
    </traci_server>

    <gui_only>
        <gui-settings-file value="SUMO/settings.settings.xml"/>
        <quit-on-end value="true"/>
        <start value="true"/>
        <tracker-interval value="1"/>
    </gui_only>

</configuration>
-->

<summary xmlns:xsi="http://www.w3.org/2001/XMLSchema-instance" xsi:noNamespaceSchemaLocation="http://sumo.dlr.de/xsd/summary_file.xsd">
    <step time="00:00:00" loaded="2" inserted="1" running="1" waiting="0" ended="0" arrived="0" collisions="0" teleports="0" halting="1" meanWaitingTime="0.00" meanTravelTime="-1.00" meanSpeed="0.00" meanSpeedRelative="0.00" duration="1581448426930"/>
    <step time="00:00:01" loaded="2" inserted="1" running="1" waiting="0" ended="0" arrived="0" collisions="0" teleports="0" halting="0" meanWaitingTime="0.00" meanTravelTime="-1.00" meanSpeed="0.80" meanSpeedRelative="0.06" duration="1581448427180"/>
    <step time="00:00:02" loaded="2" inserted="1" running="1" waiting="0" ended="0" arrived="0" collisions="0" teleports="0" halting="0" meanWaitingTime="0.00" meanTravelTime="-1.00" meanSpeed="1.47" meanSpeedRelative="0.11" duration="1581448427435"/>
    <step time="00:00:03" loaded="2" inserted="1" running="1" waiting="0" ended="0" arrived="0" collisions="0" teleports="0" halting="0" meanWaitingTime="0.00" meanTravelTime="-1.00" meanSpeed="1.99" meanSpeedRelative="0.14" duration="1581448427689"/>
    <step time="00:00:04" loaded="2" inserted="1" running="1" waiting="1" ended="0" arrived="0" collisions="0" teleports="0" halting="0" meanWaitingTime="0.00" meanTravelTime="-1.00" meanSpeed="2.53" meanSpeedRelative="0.18" duration="1581448427942"/>
    <step time="00:00:05" loaded="2" inserted="2" running="2" waiting="0" ended="0" arrived="0" collisions="0" teleports="0" halting="1" meanWaitingTime="0.50" meanTravelTime="-1.00" meanSpeed="1.53" meanSpeedRelative="0.11" duration="1581448428195"/>
    <step time="00:00:06" loaded="2" inserted="2" running="2" waiting="0" ended="0" arrived="0" collisions="0" teleports="0" halting="0" meanWaitingTime="0.50" meanTravelTime="-1.00" meanSpeed="2.08" meanSpeedRelative="0.15" duration="1581448428448"/>
    <step time="00:00:07" loaded="2" inserted="2" running="2" waiting="0" ended="0" arrived="0" collisions="0" teleports="0" halting="0" meanWaitingTime="0.50" meanTravelTime="-1.00" meanSpeed="2.71" meanSpeedRelative="0.19" duration="1581448428703"/>
    <step time="00:00:08" loaded="2" inserted="2" running="2" waiting="0" ended="0" arrived="0" collisions="0" teleports="0" halting="0" meanWaitingTime="0.50" meanTravelTime="-1.00" meanSpeed="3.28" meanSpeedRelative="0.24" duration="1581448428958"/>
    <step time="00:00:09" loaded="2" inserted="2" running="2" waiting="0" ended="0" arrived="0" collisions="0" teleports="0" halting="0" meanWaitingTime="0.50" meanTravelTime="-1.00" meanSpeed="3.72" meanSpeedRelative="0.27" duration="1581448429207"/>
    <step time="00:00:10" loaded="2" inserted="2" running="2" waiting="0" ended="0" arrived="0" collisions="0" teleports="0" halting="0" meanWaitingTime="0.50" meanTravelTime="-1.00" meanSpeed="4.02" meanSpeedRelative="0.29" duration="1581448429462"/>
    <step time="00:00:11" loaded="2" inserted="2" running="2" waiting="0" ended="0" arrived="0" collisions="0" teleports="0" halting="0" meanWaitingTime="0.50" meanTravelTime="-1.00" meanSpeed="4.38" meanSpeedRelative="0.32" duration="1581448429711"/>
    <step time="00:00:12" loaded="2" inserted="2" running="2" waiting="0" ended="0" arrived="0" collisions="0" teleports="0" halting="0" meanWaitingTime="0.50" meanTravelTime="-1.00" meanSpeed="4.65" meanSpeedRelative="0.33" duration="1581448429965"/>
    <step time="00:00:13" loaded="2" inserted="2" running="2" waiting="0" ended="0" arrived="0" collisions="0" teleports="0" halting="0" meanWaitingTime="0.50" meanTravelTime="-1.00" meanSpeed="4.88" meanSpeedRelative="0.35" duration="1581448430215"/>
    <step time="00:00:14" loaded="2" inserted="2" running="2" waiting="0" ended="0" arrived="0" collisions="0" teleports="0" halting="0" meanWaitingTime="0.50" meanTravelTime="-1.00" meanSpeed="4.82" meanSpeedRelative="0.35" duration="1581448430467"/>
    <step time="00:00:15" loaded="2" inserted="2" running="2" waiting="0" ended="0" arrived="0" collisions="0" teleports="0" halting="0" meanWaitingTime="0.50" meanTravelTime="-1.00" meanSpeed="4.77" meanSpeedRelative="0.34" duration="1581448430722"/>
    <step time="00:00:16" loaded="2" inserted="2" running="2" waiting="0" ended="0" arrived="0" collisions="0" teleports="0" halting="0" meanWaitingTime="0.50" meanTravelTime="-1.00" meanSpeed="4.93" meanSpeedRelative="0.35" duration="1581448430978"/>
    <step time="00:00:17" loaded="2" inserted="2" running="2" waiting="0" ended="0" arrived="0" collisions="0" teleports="0" halting="0" meanWaitingTime="0.50" meanTravelTime="-1.00" meanSpeed="4.90" meanSpeedRelative="0.35" duration="1581448431228"/>
    <step time="00:00:18" loaded="2" inserted="2" running="2" waiting="0" ended="0" arrived="0" collisions="0" teleports="0" halting="0" meanWaitingTime="0.50" meanTravelTime="-1.00" meanSpeed="4.86" meanSpeedRelative="0.35" duration="1581448431482"/>
    <step time="00:00:19" loaded="2" inserted="2" running="2" waiting="0" ended="0" arrived="0" collisions="0" teleports="0" halting="0" meanWaitingTime="0.50" meanTravelTime="-1.00" meanSpeed="4.76" meanSpeedRelative="0.34" duration="1581448431734"/>
    <step time="00:00:20" loaded="2" inserted="2" running="2" waiting="0" ended="0" arrived="0" collisions="0" teleports="0" halting="0" meanWaitingTime="0.50" meanTravelTime="-1.00" meanSpeed="4.64" meanSpeedRelative="0.33" duration="1581448431985"/>
    <step time="00:00:21" loaded="2" inserted="2" running="2" waiting="0" ended="0" arrived="0" collisions="0" teleports="0" halting="0" meanWaitingTime="0.50" meanTravelTime="-1.00" meanSpeed="4.88" meanSpeedRelative="0.35" duration="1581448432237"/>
    <step time="00:00:22" loaded="2" inserted="2" running="2" waiting="0" ended="0" arrived="0" collisions="0" teleports="0" halting="0" meanWaitingTime="0.50" meanTravelTime="-1.00" meanSpeed="4.81" meanSpeedRelative="0.35" duration="1581448432488"/>
    <step time="00:00:23" loaded="2" inserted="2" running="2" waiting="0" ended="0" arrived="0" collisions="0" teleports="0" halting="0" meanWaitingTime="0.50" meanTravelTime="-1.00" meanSpeed="4.70" meanSpeedRelative="0.34" duration="1581448432740"/>
    <step time="00:00:24" loaded="2" inserted="2" running="1" waiting="0" ended="1" arrived="1" collisions="0" teleports="0" halting="0" meanWaitingTime="0.50" meanTravelTime="24.00" meanSpeed="4.72" meanSpeedRelative="0.34" duration="1581448432992"/>
    <step time="00:00:25" loaded="2" inserted="2" running="1" waiting="0" ended="1" arrived="1" collisions="0" teleports="0" halting="0" meanWaitingTime="0.50" meanTravelTime="24.00" meanSpeed="4.75" meanSpeedRelative="0.34" duration="1581448433244"/>
    <step time="00:00:26" loaded="2" inserted="2" running="1" waiting="0" ended="1" arrived="1" collisions="0" teleports="0" halting="0" meanWaitingTime="0.50" meanTravelTime="24.00" meanSpeed="4.94" meanSpeedRelative="0.36" duration="1581448433494"/>
    <step time="00:00:27" loaded="2" inserted="2" running="1" waiting="0" ended="1" arrived="1" collisions="0" teleports="0" halting="0" meanWaitingTime="0.50" meanTravelTime="24.00" meanSpeed="4.76" meanSpeedRelative="0.34" duration="1581448433745"/>
    <step time="00:00:28" loaded="2" inserted="2" running="0" waiting="0" ended="2" arrived="2" collisions="0" teleports="0" halting="0" meanWaitingTime="0.50" meanTravelTime="23.50" meanSpeed="-1.00" meanSpeedRelative="-1.00" duration="1581448433994"/>
    <step time="00:00:29" loaded="2" inserted="2" running="0" waiting="0" ended="2" arrived="2" collisions="0" teleports="0" halting="0" meanWaitingTime="0.50" meanTravelTime="23.50" meanSpeed="-1.00" meanSpeedRelative="-1.00" duration="1581448434245"/>
</summary>
