<?xml version="1.0" encoding="UTF-8"?>

<!-- generated on Tue Feb 11 19:13:46 2020 by Eclipse SUMO GUI Version 1.2.0
<configuration xmlns:xsi="http://www.w3.org/2001/XMLSchema-instance" xsi:noNamespaceSchemaLocation="http://sumo.dlr.de/xsd/sumoConfiguration.xsd">

    <input>
        <net-file value="SUMO/singleRoad.net.xml"/>
        <route-files value="SUMO/singleRoad.rou.xml"/>
    </input>

    <output>
        <write-license value="true"/>
        <human-readable-time value="true"/>
        <summary-output value="SUMO/results/summaryOutput25car.txt"/>
        <tripinfo-output value="SUMO/results/tripInfo25car.txt"/>
    </output>

    <time>
        <begin value="0"/>
        <step-length value="1"/>
    </time>

    <processing>
        <route-steps value="250"/>
    </processing>

    <report>
        <verbose value="true"/>
        <duration-log.statistics value="true"/>
        <no-step-log value="true"/>
    </report>

    <traci_server>
        <remote-port value="64060"/>
    </traci_server>

    <gui_only>
        <gui-settings-file value="SUMO/settings.settings.xml"/>
        <quit-on-end value="true"/>
        <start value="true"/>
        <tracker-interval value="1"/>
    </gui_only>

</configuration>
-->

<tripinfos xmlns:xsi="http://www.w3.org/2001/XMLSchema-instance" xsi:noNamespaceSchemaLocation="http://sumo.dlr.de/xsd/tripinfo_file.xsd">
    <tripinfo id="vehicle_0" depart="00:00:00" departLane="gneE0_0" departPos="5.10" departSpeed="0.00" departDelay="00:00:00" arrival="00:00:24" arrivalLane="gneE0_0" arrivalPos="100.00" arrivalSpeed="4.62" duration="00:00:24" routeLength="94.90" waitingTime="00:00:00" waitingCount="0" stopTime="00:00:00" timeLoss="00:00:04.44" rerouteNo="0" devices="tripinfo_vehicle_0" vType="type1" speedFactor="1.06" vaporized=""/>
    <tripinfo id="vehicle_1" depart="00:00:05" departLane="gneE0_0" departPos="5.10" departSpeed="0.00" departDelay="00:00:01" arrival="00:00:28" arrivalLane="gneE0_0" arrivalPos="100.00" arrivalSpeed="4.80" duration="00:00:23" routeLength="94.90" waitingTime="00:00:00" waitingCount="0" stopTime="00:00:00" timeLoss="00:00:03.76" rerouteNo="0" devices="tripinfo_vehicle_1" vType="type1" speedFactor="0.94" vaporized=""/>
</tripinfos>
